! TOUCHSTONE file generated by CST MICROWAVE STUDIO
! Date and time: Tue Mar 18 00:00:57 2025
! Project name: oblique.cst
! Parameters = {Tilt=30; Fracture=1; B=10; D=160; F=15; Feed=2.85625; L=100; M=10; R=0.384908; S=2; Theta=270; length=57.125; wave=114.25}
! Header version: 2024
! Port assignment regex: !\s*Touchstone port\s*([0-9]+)\s*=\s*(CST MWS port|CST DES external port|CST DES block port)\s*(.+)\s* \(\"(.*)\"\)(\s*mode\s*([0-9]+))?.*
! Touchstone port assignment:
! Touchstone port 1 = CST MWS port 1 ("")
! Touchstone port 2 = CST MWS port 2 ("")
# GHz S DB R 50
1                    -0.01908303       -9.785171        -70.35014        -144.956             -200               0             -200               0
1.00658              -0.01981805       -9.873555         -70.0945       -148.1628             -200               0             -200               0
1.01316              -0.02059009         -9.9624        -69.85582       -151.3357             -200               0             -200               0
1.01974              -0.02139807        -10.0517        -69.63293       -154.4626             -200               0             -200               0
1.02632              -0.02223672       -10.14144        -69.42455       -157.5321             -200               0             -200               0
1.03289              -0.02310315       -10.23163        -69.22924       -160.5333             -200               0             -200               0
1.03947              -0.02399276       -10.32226        -69.04542       -163.4563             -200               0             -200               0
1.04605              -0.02490243       -10.41334         -68.8713       -166.2918             -200               0             -200               0
1.05263              -0.02582772        -10.5049        -68.70494       -169.0317             -200               0             -200               0
1.05921              -0.02676418       -10.59694        -68.54418       -171.6689             -200               0             -200               0
1.06579              -0.02770857        -10.6895        -68.38669       -174.1983             -200               0             -200               0
1.07237               -0.0286576       -10.78259        -68.22994       -176.6161             -200               0             -200               0
1.07895              -0.02960885       -10.87627        -68.07128       -178.9212             -200               0             -200               0
1.08553              -0.03056035       -10.97056        -67.90794        178.8851             -200               0             -200               0
1.09211              -0.03151145        -11.0655        -67.73712        176.7986             -200               0             -200               0
1.09868                -0.032461       -11.16113        -67.55604         174.812             -200               0             -200               0
1.10526              -0.03341033       -11.25751         -67.3621        172.9147             -200               0             -200               0
1.11184              -0.03435975       -11.35466        -67.15294        171.0929             -200               0             -200               0
1.11842              -0.03531159       -11.45265        -66.92658        169.3302             -200               0             -200               0
1.125                -0.03626927       -11.55149        -66.68148        167.6076             -200               0             -200               0
1.13158              -0.03723574       -11.65124         -66.4167        165.9045             -200               0             -200               0
1.13816              -0.03821712       -11.75193        -66.13185        164.1996             -200               0             -200               0
1.14474              -0.03921658       -11.85359        -65.82719        162.4717             -200               0             -200               0
1.15132              -0.04024101       -11.95625        -65.50354        160.7007             -200               0             -200               0
1.15789              -0.04129483       -12.05992        -65.16225        158.8685             -200               0             -200               0
1.16447               -0.0423847       -12.16463        -64.80508        156.9592             -200               0             -200               0
1.17105               -0.0435175       -12.27039         -64.4341          154.96             -200               0             -200               0
1.17763              -0.04469819       -12.37719        -64.05159         152.861             -200               0             -200               0
1.18421              -0.04593287       -12.48505        -63.65989        150.6556             -200               0             -200               0
1.19079              -0.04722742       -12.59395        -63.26136        148.3398             -200               0             -200               0
1.19737              -0.04858613       -12.70389        -62.85828        145.9124             -200               0             -200               0
1.20395              -0.05001408       -12.81485        -62.45275        143.3742             -200               0             -200               0
1.21053              -0.05151436       -12.92681        -62.04673         140.728             -200               0             -200               0
1.21711              -0.05308914       -13.03976        -61.64197        137.9779             -200               0             -200               0
1.22368              -0.05474251       -13.15367        -61.23998        135.1293             -200               0             -200               0
1.23026               -0.0564732       -13.26853        -60.84211         132.188             -200               0             -200               0
1.23684               -0.0582833       -13.38432        -60.44946        129.1607             -200               0             -200               0
1.24342              -0.06017122       -13.50101        -60.06298        126.0542             -200               0             -200               0
1.25                 -0.06213584       -13.61859        -59.68341        122.8755             -200               0             -200               0
1.25658              -0.06417451       -13.73705        -59.31138        119.6315             -200               0             -200               0
1.26316              -0.06628465       -13.85638        -58.94734        116.3292             -200               0             -200               0
1.26974               -0.0684631       -13.97657        -58.59163        112.9752             -200               0             -200               0
1.27632              -0.07070593       -14.09763        -58.24449         109.576             -200               0             -200               0
1.28289              -0.07300843       -14.21958        -57.90606        106.1379             -200               0             -200               0
1.28947              -0.07536621       -14.34241        -57.57638        102.6667             -200               0             -200               0
1.29605              -0.07777587       -14.46617        -57.25545        99.16817             -200               0             -200               0
1.30263              -0.08023263       -14.59087        -56.94316        95.64759             -200               0             -200               0
1.30921              -0.08273205       -14.71655        -56.63937        92.11002             -200               0             -200               0
1.31579              -0.08527118       -14.84325        -56.34389        88.56023             -200               0             -200               0
1.32237               -0.0878472       -14.97102        -56.05648        85.00267             -200               0             -200               0
1.32895              -0.09045877       -15.09991        -55.77686        81.44152             -200               0             -200               0
1.33553              -0.09310318       -15.22999        -55.50469        77.88064             -200               0             -200               0
1.34211              -0.09578226        -15.3613        -55.23962        74.32364             -200               0             -200               0
1.34868              -0.09849348       -15.49391        -54.98127        70.77381             -200               0             -200               0
1.35526               -0.1012417       -15.62789        -54.72923        67.23414             -200               0             -200               0
1.36184               -0.1040271       -15.76329        -54.48304        63.70734             -200               0             -200               0
1.36842               -0.1068552       -15.90019        -54.24225        60.19582             -200               0             -200               0
1.375                 -0.1097311       -16.03864        -54.00637        56.70167             -200               0             -200               0
1.38158               -0.1126574       -16.17871        -53.77489        53.22664             -200               0             -200               0
1.38816               -0.1156431       -16.32044        -53.54732         49.7722             -200               0             -200               0
1.39474               -0.1186954        -16.4639        -53.32311        46.33943             -200               0             -200               0
1.40132               -0.1218199       -16.60912        -53.10173        42.92911             -200               0             -200               0
1.40789               -0.1250264       -16.75615        -52.88267        39.54165             -200               0             -200               0
1.41447               -0.1283224       -16.90503        -52.66538        36.17711             -200               0             -200               0
1.42105               -0.1317168       -17.05578        -52.44934        32.83518             -200               0             -200               0
1.42763               -0.1352173       -17.20844        -52.23406        29.51523             -200               0             -200               0
1.43421               -0.1388334       -17.36303        -52.01903        26.21627             -200               0             -200               0
1.44079               -0.1425725       -17.51955        -51.80381        22.93698             -200               0             -200               0
1.44737                -0.146441       -17.67802        -51.58797        19.67574             -200               0             -200               0
1.45395               -0.1504463       -17.83846         -51.3711        16.43063             -200               0             -200               0
1.46053               -0.1545948       -18.00087        -51.15287        13.19949             -200               0             -200               0
1.46711               -0.1588928       -18.16525        -50.93297         9.97995             -200               0             -200               0
1.47368               -0.1633427       -18.33162        -50.71115        6.769441             -200               0             -200               0
1.48026               -0.1679507       -18.49997        -50.48721        3.565278             -200               0             -200               0
1.48684               -0.1727188       -18.67032        -50.26101       0.3646915             -200               0             -200               0
1.49342               -0.1776483       -18.84267        -50.03245       -2.835121             -200               0             -200               0
1.5                   -0.1827426       -19.01705        -49.80151       -6.036946             -200               0             -200               0
1.50658               -0.1880026       -19.19347        -49.56822       -9.243508             -200               0             -200               0
1.51316               -0.1934292       -19.37197        -49.33264       -12.45742             -200               0             -200               0
1.51974               -0.1990212       -19.55257        -49.09489       -15.68113             -200               0             -200               0
1.52632               -0.2047808       -19.73532        -48.85514       -18.91692             -200               0             -200               0
1.53289                -0.210707       -19.92027        -48.61358       -22.16683             -200               0             -200               0
1.53947               -0.2168015       -20.10748        -48.37046       -25.43267             -200               0             -200               0
1.54605               -0.2230656         -20.297        -48.12602       -28.71598             -200               0             -200               0
1.55263               -0.2294988       -20.48893        -47.88055       -32.01801             -200               0             -200               0
1.55921               -0.2361058       -20.68333        -47.63433       -35.33976             -200               0             -200               0
1.56579               -0.2428895        -20.8803        -47.38767       -38.68193             -200               0             -200               0
1.57237               -0.2498542       -21.07993        -47.14086       -42.04495             -200               0             -200               0
1.57895                -0.257007       -21.28233        -46.89421       -45.42897             -200               0             -200               0
1.58553               -0.2643533       -21.48759        -46.64799       -48.83391             -200               0             -200               0
1.59211               -0.2719044       -21.69583         -46.4025       -52.25945             -200               0             -200               0
1.59868               -0.2796676       -21.90716        -46.15798       -55.70503             -200               0             -200               0
1.60526               -0.2876578       -22.12168        -45.91468       -59.16994             -200               0             -200               0
1.61184               -0.2958876       -22.33952        -45.67282       -62.65327             -200               0             -200               0
1.61842               -0.3043726       -22.56077        -45.43259       -66.15395             -200               0             -200               0
1.625                 -0.3131298       -22.78555        -45.19417        -69.6708             -200               0             -200               0
1.63158               -0.3221776       -23.01395        -44.95769       -73.20255             -200               0             -200               0
1.63816                -0.331535       -23.24608        -44.72327        -76.7478             -200               0             -200               0
1.64474                -0.341223       -23.48203        -44.49101       -80.30515             -200               0             -200               0
1.65132               -0.3512644       -23.72188        -44.26095        -83.8731             -200               0             -200               0
1.65789               -0.3616819       -23.96571        -44.03313       -87.45019             -200               0             -200               0
1.66447                -0.372499       -24.21359        -43.80755       -91.03491             -200               0             -200               0
1.67105               -0.3837398       -24.46559        -43.58419       -94.62579             -200               0             -200               0
1.67763               -0.3954284       -24.72176        -43.36299       -98.22141             -200               0             -200               0
1.68421                -0.407591       -24.98215        -43.14388       -101.8204             -200               0             -200               0
1.69079               -0.4202514       -25.24681        -42.92675       -105.4214             -200               0             -200               0
1.69737               -0.4334345       -25.51578        -42.71149       -109.0233             -200               0             -200               0
1.70395               -0.4471658       -25.78909        -42.49793       -112.6249             -200               0             -200               0
1.71053                -0.461469       -26.06678        -42.28593       -116.2252             -200               0             -200               0
1.71711                -0.476368       -26.34886        -42.07528       -119.8233             -200               0             -200               0
1.72368               -0.4918875       -26.63538        -41.86579       -123.4186             -200               0             -200               0
1.73026                -0.508052       -26.92636        -41.65724       -127.0105             -200               0             -200               0
1.73684               -0.5248819       -27.22183         -41.4494       -130.5986             -200               0             -200               0
1.74342               -0.5424034       -27.52183        -41.24204       -134.1826             -200               0             -200               0
1.75                  -0.5606383        -27.8264        -41.03492       -137.7625             -200               0             -200               0
1.75658               -0.5796105       -28.13558        -40.82779       -141.3385             -200               0             -200               0
1.76316               -0.5993433       -28.44941         -40.6204       -144.9109             -200               0             -200               0
1.76974               -0.6198615       -28.76796        -40.41253       -148.4802             -200               0             -200               0
1.77632               -0.6411906        -29.0913        -40.20393       -152.0471             -200               0             -200               0
1.78289               -0.6633578        -29.4195        -39.99438       -155.6126             -200               0             -200               0
1.78947               -0.6863896       -29.75264        -39.78367       -159.1777             -200               0             -200               0
1.79605               -0.7103165       -30.09081        -39.57161       -162.7437             -200               0             -200               0
1.80263               -0.7351713        -30.4341        -39.35804        -166.312             -200               0             -200               0
1.80921                -0.760986       -30.78263        -39.14279        -169.884             -200               0             -200               0
1.81579               -0.7877988       -31.13649        -38.92574       -173.4615             -200               0             -200               0
1.82237               -0.8156491        -31.4958        -38.70681       -177.0462             -200               0             -200               0
1.82895               -0.8445798       -31.86069        -38.48591          179.36             -200               0             -200               0
1.83553               -0.8746375       -32.23125        -38.26302        175.7553             -200               0             -200               0
1.84211               -0.9058721       -32.60762        -38.03812        172.1378             -200               0             -200               0
1.84868               -0.9383373       -32.98989        -37.81123        168.5055             -200               0             -200               0
1.85526               -0.9720903       -33.37818        -37.58242        164.8567             -200               0             -200               0
1.86184                -1.007193       -33.77257        -37.35176        161.1893             -200               0             -200               0
1.86842                -1.043712       -34.17316        -37.11935        157.5017             -200               0             -200               0
1.875                  -1.081715       -34.58002        -36.88535        153.7921             -200               0             -200               0
1.88158                -1.121278       -34.99319         -36.6499        150.0589             -200               0             -200               0
1.88816                -1.162476       -35.41273         -36.4132        146.3007             -200               0             -200               0
1.89474                -1.205392       -35.83864        -36.17543         142.516             -200               0             -200               0
1.90132                 -1.25011       -36.27092        -35.93683        138.7038             -200               0             -200               0
1.90789                -1.296718       -36.70953        -35.69761        134.8629             -200               0             -200               0
1.91447                -1.345309       -37.15443        -35.45802        130.9924             -200               0             -200               0
1.92105                -1.395974       -37.60553        -35.21831        127.0915             -200               0             -200               0
1.92763                -1.448814       -38.06268        -34.97874        123.1597             -200               0             -200               0
1.93421                -1.503925       -38.52578        -34.73955        119.1964             -200               0             -200               0
1.94079                -1.561411       -38.99463        -34.50102        115.2014             -200               0             -200               0
1.94737                -1.621376       -39.46902        -34.26339        111.1744             -200               0             -200               0
1.95395                -1.683923        -39.9487        -34.02692        107.1155             -200               0             -200               0
1.96053                -1.749159       -40.43342        -33.79185        103.0247             -200               0             -200               0
1.96711                -1.817195       -40.92285        -33.55842        98.90219             -200               0             -200               0
1.97368                -1.888139       -41.41665        -33.32687        94.74825             -200               0             -200               0
1.98026                -1.962101       -41.91446        -33.09743        90.56329             -200               0             -200               0
1.98684                -2.039193       -42.41587         -32.8703        86.34778             -200               0             -200               0
1.99342                -2.119527       -42.92044        -32.64568        82.10229             -200               0             -200               0
2                      -2.203218       -43.42772        -32.42379        77.82742             -200               0             -200               0
2.00658                -2.290381       -43.93719        -32.20479        73.52387             -200               0             -200               0
2.01316                 -2.38113       -44.44835        -31.98886        69.19236             -200               0             -200               0
2.01974                -2.475583       -44.96062        -31.77616        64.83368             -200               0             -200               0
2.02632                -2.573859       -45.47343        -31.56685        60.44864             -200               0             -200               0
2.03289                 -2.67608       -45.98616        -31.36106        56.03808             -200               0             -200               0
2.03947                -2.782369       -46.49815        -31.15892        51.60286             -200               0             -200               0
2.04605                -2.892851       -47.00873        -30.96057        47.14388             -200               0             -200               0
2.05263                -3.007656       -47.51717        -30.76609        42.66204             -200               0             -200               0
2.05921                -3.126917       -48.02274        -30.57561        38.15825             -200               0             -200               0
2.06579                -3.250772       -48.52463        -30.38921        33.63341             -200               0             -200               0
2.07237                -3.379361       -49.02201        -30.20698        29.08845             -200               0             -200               0
2.07895                -3.512835       -49.51401          -30.029         24.5243             -200               0             -200               0
2.08553                -3.651345       -49.99967        -29.85533        19.94184             -200               0             -200               0
2.09211                -3.795053       -50.47802        -29.68605        15.34202             -200               0             -200               0
2.09868                -3.944127       -50.94799         -29.5212        10.72572             -200               0             -200               0
2.10526                -4.098745       -51.40843        -29.36084        6.093836             -200               0             -200               0
2.11184                -4.259092       -51.85815        -29.20501         1.44726             -200               0             -200               0
2.11842                -4.425363        -52.2958        -29.05375       -3.213136             -200               0             -200               0
2.125                  -4.597766       -52.71996         -28.9071       -7.886485             -200               0             -200               0
2.13158                -4.776517       -53.12909        -28.76509       -12.57194             -200               0             -200               0
2.13816                -4.961846       -53.52147        -28.62774       -17.26865             -200               0             -200               0
2.14474                -5.153994       -53.89525        -28.49507       -21.97579             -200               0             -200               0
2.15132                -5.353216       -54.24838        -28.36711       -26.69254             -200               0             -200               0
2.15789                -5.559779        -54.5786        -28.24386       -31.41811             -200               0             -200               0
2.16447                -5.773963       -54.88341        -28.12533       -36.15168             -200               0             -200               0
2.17105                -5.996062       -55.16005        -28.01154        -40.8925             -200               0             -200               0
2.17763                -6.226379       -55.40541        -27.90248       -45.63978             -200               0             -200               0
2.18421                -6.465234       -55.61606        -27.79816       -50.39276             -200               0             -200               0
2.19079                -6.712951       -55.78816        -27.69858       -55.15069             -200               0             -200               0
2.19737                -6.969864       -55.91739        -27.60373       -59.91284             -200               0             -200               0
2.20395                -7.236309       -55.99891         -27.5136       -64.67849             -200               0             -200               0
2.21053                -7.512622       -56.02729         -27.4282        -69.4469             -200               0             -200               0
2.21711                -7.799133       -55.99642         -27.3475       -74.21737             -200               0             -200               0
2.22368                -8.096152       -55.89939         -27.2715       -78.98921             -200               0             -200               0
2.23026                -8.403964       -55.72843        -27.20017       -83.76171             -200               0             -200               0
2.23684                -8.722807       -55.47476        -27.13351       -88.53419             -200               0             -200               0
2.24342                -9.052856       -55.12846         -27.0715       -93.30598             -200               0             -200               0
2.25                   -9.394194       -54.67836         -27.0141       -98.07639             -200               0             -200               0
2.25658                -9.746776       -54.11186        -26.96131       -102.8448             -200               0             -200               0
2.26316                -10.11038       -53.41482        -26.91309       -107.6105             -200               0             -200               0
2.26974                -10.48455       -52.57141        -26.86942       -112.3728             -200               0             -200               0
2.27632                -10.86853       -51.56405        -26.83026       -117.1312             -200               0             -200               0
2.28289                -11.26114        -50.3734         -26.7956       -121.8849             -200               0             -200               0
2.28947                -11.66067       -48.97847        -26.76539       -126.6333             -200               0             -200               0