! TOUCHSTONE file generated by CST MICROWAVE STUDIO
! Date and time: Tue Mar 18 00:00:59 2025
! Project name: oblique.cst
! Parameters = {Tilt=30; Fracture=1; B=10; D=160; F=15; Feed=2.85625; L=100; M=30; R=0.384908; S=2; Theta=270; length=57.125; wave=114.25}
! Header version: 2024
! Port assignment regex: !\s*Touchstone port\s*([0-9]+)\s*=\s*(CST MWS port|CST DES external port|CST DES block port)\s*(.+)\s* \(\"(.*)\"\)(\s*mode\s*([0-9]+))?.*
! Touchstone port assignment:
! Touchstone port 1 = CST MWS port 1 ("")
! Touchstone port 2 = CST MWS port 2 ("")
# GHz S DB R 50
1                    -0.02174671       -9.783272        -65.36484        168.3523             -200               0             -200               0
1.0066               -0.02233209        -9.86981        -65.47872        162.2732             -200               0             -200               0
1.0132                -0.0228971       -9.957056        -65.63372        156.2948             -200               0             -200               0
1.0198               -0.02344888       -10.04506         -65.8326        150.4265             -200               0             -200               0
1.0264               -0.02398983       -10.13386        -66.07871        144.6812             -200               0             -200               0
1.033                -0.02452727       -10.22351        -66.37611         139.076             -200               0             -200               0
1.0396               -0.02506803       -10.31404        -66.72973        133.6342             -200               0             -200               0
1.0462               -0.02561757       -10.40548        -67.14559        128.3873             -200               0             -200               0
1.05281              -0.02618356       -10.49786        -67.63107        123.3784             -200               0             -200               0
1.05941              -0.02677665       -10.59117        -68.19517         118.668             -200               0             -200               0
1.06601              -0.02740178       -10.68544        -68.84885        114.3422             -200               0             -200               0
1.07261              -0.02806728       -10.78066        -69.60526        110.5269             -200               0             -200               0
1.07921              -0.02878127       -10.87682         -70.4795         107.411             -200               0             -200               0
1.08581              -0.02955042       -10.97391        -71.48697        105.2862             -200               0             -200               0
1.09241              -0.03038164       -11.07191        -72.63746        104.6113             -200               0             -200               0
1.09901              -0.03127996       -11.17078         -73.9175        106.1063             -200               0             -200               0
1.10561              -0.03224839       -11.27049        -75.24394        110.8136             -200               0             -200               0
1.11221               -0.0332922       -11.37102        -76.37156         119.796             -200               0             -200               0
1.11881              -0.03441316       -11.47231        -76.84648         132.735             -200               0             -200               0
1.12541              -0.03561033       -11.57435        -76.32314         146.346             -200               0             -200               0
1.13201              -0.03688663       -11.67707        -75.00833        156.7029             -200               0             -200               0
1.13861              -0.03823686       -11.78046        -73.37909        162.6863             -200               0             -200               0
1.14521              -0.03966231       -11.88447        -71.74582        165.1628             -200               0             -200               0
1.15182              -0.04115647       -11.98909        -70.22758        165.2462             -200               0             -200               0
1.15842              -0.04271447       -12.09428        -68.85132        163.7509             -200               0             -200               0
1.16502              -0.04433439       -12.20003         -67.6112        161.2025             -200               0             -200               0
1.17162              -0.04600603       -12.30633        -66.49233        157.9342             -200               0             -200               0
1.17822              -0.04772532       -12.41319        -65.47907        154.1613             -200               0             -200               0
1.18482              -0.04948585       -12.52061        -64.55741        150.0266             -200               0             -200               0
1.19142              -0.05127965        -12.6286        -63.71557        145.6276             -200               0             -200               0
1.19802              -0.05309968        -12.7372        -62.94378        141.0329             -200               0             -200               0
1.20462              -0.05494163       -12.84644        -62.23397        136.2923             -200               0             -200               0
1.21122              -0.05680036       -12.95635        -61.57951        131.4426             -200               0             -200               0
1.21782              -0.05866886       -13.06699         -60.9749        126.5117             -200               0             -200               0
1.22442               -0.0605446       -13.17841        -60.41553        121.5215             -200               0             -200               0
1.23102              -0.06242648       -13.29067        -59.89755        116.4892             -200               0             -200               0
1.23762              -0.06431086       -13.40384        -59.41771        111.4289             -200               0             -200               0
1.24422              -0.06619724       -13.51798        -58.97323        106.3524             -200               0             -200               0
1.25083              -0.06808992       -13.63316        -58.56176        101.2697             -200               0             -200               0
1.25743              -0.06998876       -13.74945        -58.18123        96.18928             -200               0             -200               0
1.26403              -0.07189728       -13.86691         -57.8299        91.11905             -200               0             -200               0
1.27063              -0.07382284       -13.98561        -57.50623        86.06606             -200               0             -200               0
1.27723              -0.07577034        -14.1056        -57.20886        81.03689             -200               0             -200               0
1.28383              -0.07774737       -14.22694        -56.93662        76.03788             -200               0             -200               0
1.29043              -0.07976182       -14.34967        -56.68843        71.07516             -200               0             -200               0
1.29703              -0.08182389       -14.47383        -56.46335        66.15484             -200               0             -200               0
1.30363              -0.08394042       -14.59945         -56.2605        61.28309             -200               0             -200               0
1.31023              -0.08612174       -14.72656        -56.07908         56.4662             -200               0             -200               0
1.31683              -0.08837842       -14.85516        -55.91832        51.71072             -200               0             -200               0
1.32343              -0.09071989       -14.98527        -55.77748        47.02345             -200               0             -200               0
1.33003              -0.09315323       -15.11688        -55.65583        42.41158             -200               0             -200               0
1.33663              -0.09568794       -15.24998        -55.55259        37.88269             -200               0             -200               0
1.34323              -0.09833111       -15.38455        -55.46698        33.44482             -200               0             -200               0
1.34984                -0.101088       -15.52057        -55.39812        29.10648             -200               0             -200               0
1.35644               -0.1039669       -15.65801        -55.34504        24.87666             -200               0             -200               0
1.36304               -0.1069685       -15.79685        -55.30664        20.76484             -200               0             -200               0
1.36964               -0.1100964       -15.93705        -55.28164        16.78088             -200               0             -200               0
1.37624               -0.1133524       -16.07858        -55.26857        12.93494             -200               0             -200               0
1.38284               -0.1167351       -16.22142        -55.26568        9.237299             -200               0             -200               0
1.38944               -0.1202431       -16.36554        -55.27095         5.69809             -200               0             -200               0
1.39604               -0.1238741       -16.51092        -55.28199         2.32692             -200               0             -200               0
1.40264               -0.1276243       -16.65754        -55.29607      -0.8676154             -200               0             -200               0
1.40924               -0.1314882       -16.80541        -55.31003       -3.878557             -200               0             -200               0
1.41584               -0.1354611       -16.95452        -55.32032       -6.701348             -200               0             -200               0
1.42244               -0.1395346       -17.10489        -55.32303       -9.334707             -200               0             -200               0
1.42904               -0.1437028       -17.25655        -55.31394       -11.78154             -200               0             -200               0
1.43564                -0.147959       -17.40954        -55.28865       -14.04984             -200               0             -200               0
1.44224               -0.1522969       -17.56389        -55.24279       -16.15339             -200               0             -200               0
1.44884               -0.1567089       -17.71968        -55.17221       -18.11211             -200               0             -200               0
1.45545               -0.1611915       -17.87696        -55.07326       -19.95198             -200               0             -200               0
1.46205               -0.1657405       -18.03583        -54.94307       -21.70433             -200               0             -200               0
1.46865               -0.1703503       -18.19637        -54.77973       -23.40448             -200               0             -200               0
1.47525               -0.1750208       -18.35869        -54.58252       -25.08987             -200               0             -200               0
1.48185               -0.1797519       -18.52288        -54.35191       -26.79799             -200               0             -200               0
1.48845               -0.1845444       -18.68907        -54.08954       -28.56416             -200               0             -200               0
1.49505               -0.1894021       -18.85736        -53.79804       -30.41969             -200               0             -200               0
1.50165               -0.1943303       -19.02788        -53.48081       -32.39056             -200               0             -200               0
1.50825               -0.1993377       -19.20074        -53.14173       -34.49664             -200               0             -200               0
1.51485               -0.2044317       -19.37605        -52.78495       -36.75163             -200               0             -200               0
1.52145                -0.209625       -19.55393         -52.4146       -39.16334             -200               0             -200               0
1.52805               -0.2149293       -19.73449        -52.03463       -41.73448             -200               0             -200               0
1.53465               -0.2203603       -19.91782         -51.6487       -44.46346             -200               0             -200               0
1.54125               -0.2259332       -20.10402        -51.26006       -47.34539             -200               0             -200               0
1.54785               -0.2316668       -20.29316        -50.87157       -50.37288             -200               0             -200               0
1.55446               -0.2375766       -20.48532        -50.48565       -53.53687             -200               0             -200               0
1.56106                -0.243683       -20.68056        -50.10434       -56.82722             -200               0             -200               0
1.56766               -0.2500043       -20.87893        -49.72931       -60.23323             -200               0             -200               0
1.57426               -0.2565592       -21.08047        -49.36189       -63.74401             -200               0             -200               0
1.58086               -0.2633677       -21.28521        -49.00314       -67.34874             -200               0             -200               0
1.58746               -0.2704484       -21.49315        -48.65388       -71.03688             -200               0             -200               0
1.59406               -0.2778179       -21.70432        -48.31469       -74.79827             -200               0             -200               0
1.60066               -0.2854929       -21.91871        -47.98601       -78.62319             -200               0             -200               0
1.60726               -0.2934895       -22.13632        -47.66809       -82.50243             -200               0             -200               0
1.61386               -0.3018211       -22.35714        -47.36109       -86.42725             -200               0             -200               0
1.62046                -0.310501       -22.58115        -47.06505       -90.38943             -200               0             -200               0
1.62706               -0.3195398       -22.80834         -46.7799       -94.38117             -200               0             -200               0
1.63366               -0.3289474       -23.03869        -46.50551       -98.39513             -200               0             -200               0
1.64026               -0.3387326       -23.27221        -46.24167       -102.4244             -200               0             -200               0
1.64686               -0.3489011       -23.50888        -45.98811       -106.4624             -200               0             -200               0
1.65347               -0.3594573       -23.74872        -45.74451        -110.503             -200               0             -200               0
1.66007               -0.3704059       -23.99172        -45.51049       -114.5403             -200               0             -200               0
1.66667               -0.3817505       -24.23793         -45.2856       -118.5688             -200               0             -200               0
1.67327               -0.3934943       -24.48738        -45.06938       -122.5833             -200               0             -200               0
1.67987               -0.4056385       -24.74012        -44.86128       -126.5789             -200               0             -200               0
1.68647               -0.4181845       -24.99622        -44.66072       -130.5509             -200               0             -200               0
1.69307               -0.4311364       -25.25577        -44.46706       -134.4951             -200               0             -200               0
1.69967               -0.4444947       -25.51886        -44.27963       -138.4077             -200               0             -200               0
1.70627                -0.458267        -25.7856        -44.09768        -142.285             -200               0             -200               0
1.71287               -0.4724563       -26.05614        -43.92042       -146.1239             -200               0             -200               0
1.71947                 -0.48707       -26.33062        -43.74702       -149.9218             -200               0             -200               0
1.72607                -0.502119       -26.60919         -43.5766       -153.6764             -200               0             -200               0
1.73267               -0.5176145       -26.89203        -43.40822       -157.3862             -200               0             -200               0
1.73927               -0.5335694       -27.17933        -43.24092       -161.0501             -200               0             -200               0
1.74587               -0.5500034       -27.47128         -43.0737       -164.6678             -200               0             -200               0
1.75248               -0.5669361       -27.76808        -42.90556       -168.2397             -200               0             -200               0
1.75908               -0.5843907       -28.06993        -42.73547        -171.767             -200               0             -200               0
1.76568               -0.6023951       -28.37705        -42.56243       -175.2516             -200               0             -200               0
1.77228               -0.6209797       -28.68965        -42.38544       -178.6964             -200               0             -200               0
1.77888               -0.6401769       -29.00793        -42.20357         177.895             -200               0             -200               0
1.78548                -0.660027        -29.3321        -42.01593        174.5181             -200               0             -200               0
1.79208               -0.6805689       -29.66236        -41.82174        171.1676             -200               0             -200               0
1.79868               -0.7018464       -29.99891        -41.62031        167.8376             -200               0             -200               0
1.80528               -0.7239068       -30.34193        -41.41108        164.5216             -200               0             -200               0
1.81188               -0.7467996        -30.6916         -41.1936        161.2125             -200               0             -200               0
1.81848               -0.7705778       -31.04809         -40.9676        157.9031             -200               0             -200               0
1.82508                -0.795295       -31.41155        -40.73295        154.5857             -200               0             -200               0
1.83168               -0.8210093       -31.78212        -40.48966         151.253             -200               0             -200               0
1.83828               -0.8477794       -32.15994        -40.23791        147.8976             -200               0             -200               0
1.84488               -0.8756678       -32.54514        -39.97803        144.5124             -200               0             -200               0
1.85149               -0.9047352       -32.93782        -39.71044        141.0911             -200               0             -200               0
1.85809               -0.9350488       -33.33808        -39.43571        137.6275             -200               0             -200               0
1.86469                -0.966673       -33.74603         -39.1545        134.1164             -200               0             -200               0
1.87129                -0.999676       -34.16175        -38.86752        130.5532             -200               0             -200               0
1.87789                -1.034129       -34.58533        -38.57556         126.934             -200               0             -200               0
1.88449                -1.070101       -35.01684        -38.27944        123.2559             -200               0             -200               0
1.89109                -1.107666       -35.45635        -37.97997        119.5164             -200               0             -200               0
1.89769                -1.146902       -35.90395        -37.67801        115.7139             -200               0             -200               0
1.90429                -1.187884       -36.35971        -37.37436        111.8475             -200               0             -200               0
1.91089                -1.230695       -36.82369        -37.06981        107.9167             -200               0             -200               0
1.91749                -1.275418       -37.29599        -36.76512        103.9218             -200               0             -200               0
1.92409                -1.322141       -37.77666          -36.461        99.86325             -200               0             -200               0
1.93069                -1.370955        -38.2658        -36.15814        95.74215             -200               0             -200               0
1.93729                -1.421959       -38.76349        -35.85713        91.55983             -200               0             -200               0
1.94389                -1.475254        -39.2698        -35.55856        87.31786             -200               0             -200               0
1.9505                 -1.530946       -39.78481        -35.26293        83.01808             -200               0             -200               0
1.9571                 -1.589154        -40.3086        -34.97073        78.66245             -200               0             -200               0
1.9637                 -1.649996       -40.84125        -34.68238        74.25307             -200               0             -200               0
1.9703                 -1.713605       -41.38281        -34.39824         69.7921             -200               0             -200               0
1.9769                 -1.780117       -41.93334        -34.11866        65.28177             -200               0             -200               0
1.9835                 -1.849681       -42.49288        -33.84392        60.72432             -200               0             -200               0
1.9901                 -1.922454       -43.06143         -33.5743        56.12197             -200               0             -200               0
1.9967                 -1.998602         -43.639        -33.31001        51.47695             -200               0             -200               0
2.0033                 -2.078307       -44.22553        -33.05124        46.79144             -200               0             -200               0
2.0099                 -2.161756       -44.82095        -32.79818        42.06757             -200               0             -200               0
2.0165                 -2.249155       -45.42513        -32.55095        37.30742             -200               0             -200               0
2.0231                 -2.340715       -46.03791        -32.30968        32.51301             -200               0             -200               0
2.0297                 -2.436666       -46.65906        -32.07448        27.68629             -200               0             -200               0
2.0363                  -2.53725       -47.28826        -31.84542        22.82916             -200               0             -200               0
2.0429                 -2.642718       -47.92517        -31.62257        17.94341             -200               0             -200               0
2.0495                 -2.753344       -48.56932        -31.40599        13.03081             -200               0             -200               0
2.05611                -2.869407       -49.22016        -31.19573        8.093034             -200               0             -200               0
2.06271                -2.991209       -49.87705         -30.9918         3.13169             -200               0             -200               0
2.06931                -3.119062       -50.53923        -30.79424       -1.851675             -200               0             -200               0
2.07591                -3.253298       -51.20582        -30.60306       -6.855577             -200               0             -200               0
2.08251                -3.394261        -51.8758        -30.41826       -11.87859             -200               0             -200               0
2.08911                -3.542318       -52.54802        -30.23986       -16.91936             -200               0             -200               0
2.09571                -3.697847       -53.22112        -30.06784       -21.97656             -200               0             -200               0
2.10231                -3.861249       -53.89363        -29.90219       -27.04894             -200               0             -200               0
2.10891                -4.032943       -54.56383        -29.74292        -32.1353             -200               0             -200               0
2.11551                -4.213367       -55.22981           -29.59       -37.23447             -200               0             -200               0
2.12211                -4.402983       -55.88941        -29.44341       -42.34533             -200               0             -200               0
2.12871                -4.602273       -56.54021        -29.30314        -47.4668             -200               0             -200               0
2.13531                -4.811746       -57.17949        -29.16916       -52.59784             -200               0             -200               0
2.14191                -5.031932        -57.8042        -29.04146       -57.73745             -200               0             -200               0
2.14851                -5.263391       -58.41089        -28.92001       -62.88464             -200               0             -200               0
2.15512                -5.506713       -58.99572        -28.80478       -68.03849             -200               0             -200               0
2.16172                -5.762514       -59.55434        -28.69576       -73.19805             -200               0             -200               0
2.16832                -6.031443       -60.08183        -28.59291       -78.36245             -200               0             -200               0
2.17492                -6.314184       -60.57266        -28.49621       -83.53082             -200               0             -200               0
2.18152                -6.611451       -61.02051        -28.40563       -88.70229             -200               0             -200               0
2.18812                -6.923992       -61.41821        -28.32115       -93.87604             -200               0             -200               0
2.19472                -7.252587       -61.75754        -28.24275       -99.05125             -200               0             -200               0
2.20132                -7.598043        -62.0291        -28.17039       -104.2271             -200               0             -200               0
2.20792                -7.961183       -62.22204        -28.10405       -109.4028             -200               0             -200               0
2.21452                -8.342844       -62.32378        -28.04371       -114.5777             -200               0             -200               0
2.22112                -8.743846       -62.31978        -27.98934       -119.7508             -200               0             -200               0
2.22772                -9.164966         -62.193        -27.94091       -124.9214             -200               0             -200               0
2.23432                -9.606895       -61.92358         -27.8984       -130.0889             -200               0             -200               0
2.24092                -10.07016       -61.48816        -27.86179       -135.2523             -200               0             -200               0
2.24752                -10.55504       -60.85937        -27.83105        -140.411             -200               0             -200               0
2.25413                -11.06138       -60.00505        -27.80615       -145.5643             -200               0             -200               0
2.26073                -11.58842       -58.88766        -27.78707       -150.7112             -200               0             -200               0
2.26733                -12.13447        -57.4636        -27.77378       -155.8511             -200               0             -200               0
2.27393                -12.69648       -55.68313        -27.76626       -160.9833             -200               0             -200               0
2.28053                -13.26947       -53.49089        -27.76447       -166.1068             -200               0             -200               0
2.28713                -13.84583       -50.82793         -27.7684        -171.221             -200               0             -200               0
2.29373                 -14.4145       -47.63621        -27.77801       -176.3251             -200               0             -200               0