! TOUCHSTONE file generated by CST MICROWAVE STUDIO
! Date and time: Tue Mar 18 00:01:45 2025
! Project name: oblique.cst
! Parameters = {Tilt=30; Fracture=1; B=12.5; D=160; F=25; Feed=2.85625; L=100; M=50; R=0.384908; S=1; Theta=270; length=57.125; wave=114.25}
! Header version: 2024
! Port assignment regex: !\s*Touchstone port\s*([0-9]+)\s*=\s*(CST MWS port|CST DES external port|CST DES block port)\s*(.+)\s* \(\"(.*)\"\)(\s*mode\s*([0-9]+))?.*
! Touchstone port assignment:
! Touchstone port 1 = CST MWS port 1 ("")
! Touchstone port 2 = CST MWS port 2 ("")
# GHz S DB R 50
1                    -0.02025896       -9.830701        -69.39698        150.6862             -200               0             -200               0
1.0066               -0.02091654        -9.91888        -69.33787        145.3522             -200               0             -200               0
1.0132                -0.0215843       -10.00766        -69.30676        140.1291             -200               0             -200               0
1.0198               -0.02226506       -10.09705         -69.3035        135.0268             -200               0             -200               0
1.0264               -0.02295685       -10.18708        -69.32795        130.0573             -200               0             -200               0
1.033                -0.02366136       -10.27777        -69.37992        125.2345             -200               0             -200               0
1.0396               -0.02438026       -10.36913        -69.45919        120.5751             -200               0             -200               0
1.0462               -0.02511483       -10.46117        -69.56533        116.0982             -200               0             -200               0
1.05281              -0.02586666       -10.55392         -69.6977        111.8266             -200               0             -200               0
1.05941              -0.02663749       -10.64739        -69.85524        107.7863             -200               0             -200               0
1.06601              -0.02742857        -10.7416        -70.03631        104.0074             -200               0             -200               0
1.07261              -0.02824319       -10.83656        -70.23845        100.5237             -200               0             -200               0
1.07921              -0.02908311       -10.93227        -70.45806        97.37291             -200               0             -200               0
1.08581              -0.02994965       -11.02877        -70.68998        94.59512             -200               0             -200               0
1.09241              -0.03084464       -11.12604        -70.92709        92.23107             -200               0             -200               0
1.09901              -0.03177146        -11.2241        -71.15981        90.31822             -200               0             -200               0
1.10561              -0.03273046       -11.32296        -71.37578        88.88484             -200               0             -200               0
1.11221              -0.03372572       -11.42262        -71.55983        87.94175             -200               0             -200               0
1.11881              -0.03475696       -11.52309        -71.69459        87.47237             -200               0             -200               0
1.12541              -0.03582667       -11.62437        -71.76192        87.42331             -200               0             -200               0
1.13201              -0.03693475       -11.72647         -71.7453        87.69926             -200               0             -200               0
1.13861               -0.0380841       -11.82939        -71.63273        88.16657             -200               0             -200               0
1.14521              -0.03927411       -11.93314        -71.41925        88.66729             -200               0             -200               0
1.15182              -0.04050612       -12.03771        -71.10804        89.04127             -200               0             -200               0
1.15842              -0.04178092       -12.14313        -70.70968        89.14893             -200               0             -200               0
1.16502              -0.04309726       -12.24938        -70.23982        88.88724             -200               0             -200               0
1.17162              -0.04445631       -12.35649        -69.71621        88.19528             -200               0             -200               0
1.17822              -0.04585826       -12.46445        -69.15628        87.05046             -200               0             -200               0
1.18482              -0.04730203       -12.57329         -68.5754        85.45961             -200               0             -200               0
1.19142              -0.04878764       -12.68301        -67.98621        83.44893             -200               0             -200               0
1.19802              -0.05031449       -12.79363        -67.39851        81.05529             -200               0             -200               0
1.20462              -0.05188278       -12.90518        -66.81955        78.31985             -200               0             -200               0
1.21122              -0.05349227       -13.01766         -66.2545        75.28395             -200               0             -200               0
1.21782              -0.05514247        -13.1311        -65.70689        71.98671             -200               0             -200               0
1.22442              -0.05683346       -13.24552        -65.17901        68.46387             -200               0             -200               0
1.23102              -0.05856562       -13.36096        -64.67224        64.74737             -200               0             -200               0
1.23762              -0.06034019       -13.47745        -64.18733         60.8654             -200               0             -200               0
1.24422              -0.06215713         -13.595        -63.72454        56.84265             -200               0             -200               0
1.25083              -0.06401795       -13.71365        -63.28384        52.70069             -200               0             -200               0
1.25743              -0.06592447       -13.83344        -62.86496        48.45836             -200               0             -200               0
1.26403               -0.0678787        -13.9544        -62.46752        44.13214             -200               0             -200               0
1.27063              -0.06988283       -14.07657        -62.09101        39.73652             -200               0             -200               0
1.27723               -0.0719409       -14.19997        -61.73491        35.28428             -200               0             -200               0
1.28383              -0.07405509       -14.32464        -61.39863        30.78678             -200               0             -200               0
1.29043              -0.07622938       -14.45062        -61.08161         26.2542             -200               0             -200               0
1.29703              -0.07846865       -14.57793        -60.78325        21.69568             -200               0             -200               0
1.30363              -0.08077647        -14.7066        -60.50299        17.11958             -200               0             -200               0
1.31023              -0.08315866       -14.83667        -60.24024        12.53355             -200               0             -200               0
1.31683              -0.08561957       -14.96816        -59.99446        7.944663             -200               0             -200               0
1.32343              -0.08816469       -15.10109        -59.76509         3.35955             -200               0             -200               0
1.33003              -0.09079991       -15.23548        -59.55158       -1.215542             -200               0             -200               0
1.33663               -0.0935304       -15.37137         -59.3534       -5.774674             -200               0             -200               0
1.34323              -0.09636191       -15.50875           -59.17       -10.31214             -200               0             -200               0
1.34984              -0.09930129       -15.64765        -59.00082       -14.82245             -200               0             -200               0
1.35644               -0.1023522       -15.78808        -58.84531       -19.30025             -200               0             -200               0
1.36304               -0.1055208       -15.93004        -58.70288       -23.74031             -200               0             -200               0
1.36964               -0.1088131       -16.07355        -58.57293       -28.13751             -200               0             -200               0
1.37624               -0.1122329       -16.21862        -58.45482       -32.48682             -200               0             -200               0
1.38284               -0.1157853       -16.36523        -58.34788       -36.78332             -200               0             -200               0
1.38944               -0.1194749       -16.51342        -58.25137       -41.02217             -200               0             -200               0
1.39604               -0.1233061       -16.66317        -58.16452       -45.19869             -200               0             -200               0
1.40264               -0.1272824        -16.8145         -58.0865       -49.30834             -200               0             -200               0
1.40924               -0.1314065       -16.96741        -58.01637       -53.34682             -200               0             -200               0
1.41584               -0.1356823       -17.12189        -57.95317       -57.31009             -200               0             -200               0
1.42244               -0.1401122       -17.27797         -57.8958        -61.1945             -200               0             -200               0
1.42904               -0.1446981       -17.43565        -57.84313       -64.99686             -200               0             -200               0
1.43564               -0.1494429       -17.59495        -57.79389       -68.71457             -200               0             -200               0
1.44224               -0.1543509       -17.75588        -57.74678       -72.34574             -200               0             -200               0
1.44884               -0.1594208       -17.91845        -57.70038       -75.88934             -200               0             -200               0
1.45545               -0.1646563       -18.08269        -57.65323       -79.34533             -200               0             -200               0
1.46205               -0.1700592       -18.24863        -57.60382       -82.71483             -200               0             -200               0
1.46865               -0.1756318       -18.41628        -57.55061       -86.00021             -200               0             -200               0
1.47525               -0.1813767       -18.58569        -57.49207       -89.20523             -200               0             -200               0
1.48185               -0.1872967       -18.75689        -57.42672       -92.33507             -200               0             -200               0
1.48845               -0.1933953       -18.92992        -57.35317       -95.39639             -200               0             -200               0
1.49505               -0.1996745       -19.10481        -57.27014       -98.39724             -200               0             -200               0
1.50165               -0.2061413       -19.28161        -57.17655       -101.3469             -200               0             -200               0
1.50825               -0.2127978       -19.46036        -57.07151        -104.256             -200               0             -200               0
1.51485                -0.219652       -19.64112        -56.95439       -107.1356             -200               0             -200               0
1.52145                -0.226707       -19.82393        -56.82481       -109.9976             -200               0             -200               0
1.52805               -0.2339718       -20.00884         -56.6827        -112.854             -200               0             -200               0
1.53465                -0.241453       -20.19589        -56.52826       -115.7167             -200               0             -200               0
1.54125               -0.2491599       -20.38514        -56.36196        -118.597             -200               0             -200               0
1.54785               -0.2570995       -20.57662        -56.18454       -121.5053             -200               0             -200               0
1.55446               -0.2652822        -20.7704        -55.99693        -124.451             -200               0             -200               0
1.56106               -0.2737174        -20.9665        -55.80025       -127.4422             -200               0             -200               0
1.56766               -0.2824167       -21.16497        -55.59574       -130.4855             -200               0             -200               0
1.57426               -0.2913898       -21.36584        -55.38474        -133.586             -200               0             -200               0
1.58086               -0.3006495       -21.56916        -55.16863       -136.7474             -200               0             -200               0
1.58746               -0.3102068       -21.77494        -54.94878       -139.9718             -200               0             -200               0
1.59406               -0.3200738       -21.98322        -54.72656       -143.2603             -200               0             -200               0
1.60066               -0.3302615       -22.19402        -54.50328       -146.6123             -200               0             -200               0
1.60726               -0.3407831       -22.40735        -54.28015       -150.0266             -200               0             -200               0
1.61386               -0.3516505       -22.62324        -54.05833       -153.5009             -200               0             -200               0
1.62046               -0.3628751        -22.8417        -53.83886        -157.032             -200               0             -200               0
1.62706               -0.3744681       -23.06274        -53.62266       -160.6162             -200               0             -200               0
1.63366               -0.3864412       -23.28638        -53.41059       -164.2493             -200               0             -200               0
1.64026               -0.3988049       -23.51261        -53.20337       -167.9266             -200               0             -200               0
1.64686               -0.4115687       -23.74145        -53.00162       -171.6431             -200               0             -200               0
1.65347               -0.4247454        -23.9729        -52.80588       -175.3937             -200               0             -200               0
1.66007               -0.4383426       -24.20698        -52.61656       -179.1728             -200               0             -200               0
1.66667               -0.4523689       -24.44369        -52.43401        177.0251             -200               0             -200               0
1.67327               -0.4668345       -24.68305        -52.25848        173.2055             -200               0             -200               0
1.67987                -0.481748       -24.92509        -52.09013        169.3742             -200               0             -200               0
1.68647               -0.4971166       -25.16981        -51.92904         165.537             -200               0             -200               0
1.69307               -0.5129488       -25.41725        -51.77521        161.6994             -200               0             -200               0
1.69967               -0.5292534       -25.66744        -51.62855        157.8672             -200               0             -200               0
1.70627               -0.5460366       -25.92041        -51.48892        154.0461             -200               0             -200               0
1.71287               -0.5633091       -26.17622        -51.35605        150.2416             -200               0             -200               0
1.71947               -0.5810775       -26.43492        -51.22963        146.4593             -200               0             -200               0
1.72607               -0.5993517       -26.69656        -51.10923        142.7045             -200               0             -200               0
1.73267               -0.6181425       -26.96121        -50.99436        138.9825             -200               0             -200               0
1.73927               -0.6374603       -27.22894        -50.88443        135.2982             -200               0             -200               0
1.74587               -0.6573166       -27.49985        -50.77873        131.6564             -200               0             -200               0
1.75248               -0.6777241         -27.774        -50.67648        128.0615             -200               0             -200               0
1.75908               -0.6986974        -28.0515        -50.57681        124.5175             -200               0             -200               0
1.76568               -0.7202539       -28.33245        -50.47872        121.0277             -200               0             -200               0
1.77228               -0.7424082       -28.61695        -50.38113        117.5949             -200               0             -200               0
1.77888               -0.7651803        -28.9051        -50.28288        114.2212             -200               0             -200               0
1.78548               -0.7885933       -29.19701        -50.18273        110.9076             -200               0             -200               0
1.79208               -0.8126685       -29.49281        -50.07935        107.6544             -200               0             -200               0
1.79868               -0.8374302       -29.79259        -49.97139        104.4603             -200               0             -200               0
1.80528               -0.8629069       -30.09648        -49.85748        101.3233             -200               0             -200               0
1.81188               -0.8891259       -30.40458        -49.73623        98.23956             -200               0             -200               0
1.81848               -0.9161198       -30.71701        -49.60634        95.20418             -200               0             -200               0
1.82508                -0.943921       -31.03387        -49.46654        92.21076             -200               0             -200               0
1.83168               -0.9725637       -31.35525        -49.31573        89.25163             -200               0             -200               0
1.83828                -1.002086       -31.68127        -49.15294        86.31788             -200               0             -200               0
1.84488                -1.032524       -32.01202         -48.9774        83.39961             -200               0             -200               0
1.85149                -1.063922       -32.34757        -48.78857        80.48616             -200               0             -200               0
1.85809                -1.096319       -32.68801        -48.58616        77.56634             -200               0             -200               0
1.86469                 -1.12976       -33.03342        -48.37013        74.62882             -200               0             -200               0
1.87129                 -1.16429       -33.38386         -48.1407        71.66237             -200               0             -200               0
1.87789                -1.199955       -33.73939        -47.89833        68.65624             -200               0             -200               0
1.88449                -1.236805       -34.10007        -47.64372        65.60039             -200               0             -200               0
1.89109                -1.274888       -34.46596        -47.37774        62.48576             -200               0             -200               0
1.89769                -1.314255       -34.83707        -47.10143         59.3044             -200               0             -200               0
1.90429                -1.354957       -35.21347        -46.81594        56.04962             -200               0             -200               0
1.91089                 -1.39705       -35.59519        -46.52253        52.71603             -200               0             -200               0
1.91749                -1.440585       -35.98226        -46.22245        49.29951             -200               0             -200               0
1.92409                -1.485621       -36.37471        -45.91701         45.7972             -200               0             -200               0
1.93069                -1.532216       -36.77257        -45.60747        42.20736             -200               0             -200               0
1.93729                -1.580428       -37.17586        -45.29506        38.52931             -200               0             -200               0
1.94389                 -1.63032       -37.58462        -44.98094        34.76326             -200               0             -200               0
1.9505                 -1.681955       -37.99887        -44.66619        30.91022             -200               0             -200               0
1.9571                   -1.7354       -38.41865        -44.35183         26.9718             -200               0             -200               0
1.9637                 -1.790724       -38.84398        -44.03878        22.95015             -200               0             -200               0
1.9703                 -1.847999        -39.2749        -43.72786        18.84783             -200               0             -200               0
1.9769                 -1.907301       -39.71145        -43.41983        14.66768             -200               0             -200               0
1.9835                 -1.968709       -40.15366        -43.11534        10.41275             -200               0             -200               0
1.9901                  -2.03231       -40.60158        -42.81497        6.086247             -200               0             -200               0
1.9967                 -2.098191       -41.05524        -42.51924        1.691428             -200               0             -200               0
2.0033                 -2.166447       -41.51466         -42.2286       -2.768425             -200               0             -200               0
2.0099                 -2.237179       -41.97991        -41.94341       -7.290047             -200               0             -200               0
2.0165                 -2.310494       -42.45098        -41.66402       -11.87023             -200               0             -200               0
2.0231                 -2.386505       -42.92793        -41.39069       -16.50584             -200               0             -200               0
2.0297                 -2.465335       -43.41074        -41.12366       -21.19385             -200               0             -200               0
2.0363                 -2.547114       -43.89944        -40.86314       -25.93132             -200               0             -200               0
2.0429                 -2.631978       -44.39399        -40.60926       -30.71544             -200               0             -200               0
2.0495                 -2.720077       -44.89436        -40.36218       -35.54353             -200               0             -200               0
2.05611                -2.811567       -45.40049        -40.12199       -40.41302             -200               0             -200               0
2.06271                -2.906615       -45.91229        -39.88878       -45.32147             -200               0             -200               0
2.06931                -3.005401       -46.42965        -39.66261       -50.26655             -200               0             -200               0
2.07591                -3.108115       -46.95239        -39.44352       -55.24607             -200               0             -200               0
2.08251                -3.214958        -47.4803        -39.23156       -60.25793             -200               0             -200               0
2.08911                -3.326144       -48.01313        -39.02674       -65.30015             -200               0             -200               0
2.09571                -3.441901       -48.55057        -38.82907       -70.37086             -200               0             -200               0
2.10231                -3.562472       -49.09221        -38.63856       -75.46829             -200               0             -200               0
2.10891                -3.688111       -49.63763         -38.4552       -80.59075             -200               0             -200               0
2.11551                -3.819089       -50.18626        -38.27899       -85.73665             -200               0             -200               0
2.12211                -3.955694       -50.73751        -38.10989       -90.90448             -200               0             -200               0
2.12871                -4.098228       -51.29062        -37.94791       -96.09281             -200               0             -200               0
2.13531                -4.247013       -51.84478        -37.79301       -101.3003             -200               0             -200               0
2.14191                -4.402389       -52.39901        -37.64518       -106.5256             -200               0             -200               0
2.14851                -4.564715       -52.95223        -37.50438       -111.7675             -200               0             -200               0
2.15512                 -4.73437       -53.50321         -37.3706       -117.0249             -200               0             -200               0
2.16172                -4.911758       -54.05052         -37.2438       -122.2966             -200               0             -200               0
2.16832                -5.097305       -54.59256        -37.12396       -127.5816             -200               0             -200               0
2.17492                -5.291465       -55.12754        -37.01105       -132.8789             -200               0             -200               0
2.18152                -5.494717       -55.65342        -36.90506       -138.1874             -200               0             -200               0
2.18812                -5.707573       -56.16788        -36.80594       -143.5063             -200               0             -200               0
2.19472                -5.930574       -56.66835        -36.71369       -148.8346             -200               0             -200               0
2.20132                -6.164301       -57.15185        -36.62827       -154.1715             -200               0             -200               0
2.20792                -6.409372       -57.61506        -36.54967       -159.5161             -200               0             -200               0
2.21452                -6.666445       -58.05421        -36.47786       -164.8677             -200               0             -200               0
2.22112                -6.936228       -58.46497        -36.41284       -170.2254             -200               0             -200               0
2.22772                -7.219474       -58.84243        -36.35459       -175.5886             -200               0             -200               0
2.23432                -7.516993       -59.18094        -36.30308        179.0436             -200               0             -200               0
2.24092                -7.829652       -59.47403        -36.25831        173.6719             -200               0             -200               0
2.24752                -8.158378       -59.71419        -36.22028         168.297             -200               0             -200               0
2.25413                -8.504162       -59.89273        -36.18897        162.9195             -200               0             -200               0
2.26073                -8.868055        -59.9995        -36.16438        157.5402             -200               0             -200               0
2.26733                -9.251176        -60.0226        -36.14651        152.1598             -200               0             -200               0
2.27393                -9.654692         -59.948        -36.13536        146.7788             -200               0             -200               0
2.28053                -10.07981       -59.75907        -36.13092        141.3981             -200               0             -200               0
2.28713                -10.52773       -59.43596        -36.13321        136.0181             -200               0             -200               0
2.29373                -10.99964       -58.95494        -36.14223        130.6397             -200               0             -200               0