! TOUCHSTONE file generated by CST MICROWAVE STUDIO
! Date and time: Tue Mar 18 00:01:38 2025
! Project name: oblique.cst
! Parameters = {Tilt=30; Fracture=1; B=12.5; D=160; F=15; Feed=2.85625; L=100; M=30; R=0.384908; S=2; Theta=90; length=57.125; wave=114.25}
! Header version: 2024
! Port assignment regex: !\s*Touchstone port\s*([0-9]+)\s*=\s*(CST MWS port|CST DES external port|CST DES block port)\s*(.+)\s* \(\"(.*)\"\)(\s*mode\s*([0-9]+))?.*
! Touchstone port assignment:
! Touchstone port 1 = CST MWS port 1 ("")
! Touchstone port 2 = CST MWS port 2 ("")
# GHz S DB R 50
1                    -0.02155383       -9.771866        -66.35506        171.6833             -200               0             -200               0
1.00658              -0.02216657       -9.857942        -66.41338        166.0478             -200               0             -200               0
1.01316              -0.02276472       -9.944675        -66.50844        160.5296             -200               0             -200               0
1.01974              -0.02334862       -10.03212        -66.64182        155.1412             -200               0             -200               0
1.02632               -0.0239245       -10.12031        -66.81539        149.8988             -200               0             -200               0
1.03289              -0.02449443       -10.20929        -67.03136        144.8232             -200               0             -200               0
1.03947              -0.02506631        -10.2991        -67.29223        139.9408             -200               0             -200               0
1.04605              -0.02564455       -10.38977        -67.60082        135.2858             -200               0             -200               0
1.05263              -0.02623788       -10.48132        -67.96018        130.9024             -200               0             -200               0
1.05921              -0.02685042       -10.57378        -68.37343        126.8482             -200               0             -200               0
1.06579              -0.02749023       -10.66715        -68.84344         123.199             -200               0             -200               0
1.07237               -0.0281655       -10.76143        -69.37213        120.0545             -200               0             -200               0
1.07895              -0.02888255       -10.85664        -69.95919        117.5463             -200               0             -200               0
1.08553              -0.02964846       -10.95275        -70.59969        115.8459             -200               0             -200               0
1.09211              -0.03046934       -11.04976        -71.27985        115.1698             -200               0             -200               0
1.09868              -0.03135055       -11.14764         -71.9702        115.7706             -200               0             -200               0
1.10526              -0.03229656       -11.24637        -72.61637        117.8922             -200               0             -200               0
1.11184              -0.03331239       -11.34592        -73.13197        121.6547             -200               0             -200               0
1.11842              -0.03440015       -11.44625        -73.40672        126.8651             -200               0             -200               0
1.125                -0.03555986       -11.54733        -73.34453        132.8719             -200               0             -200               0
1.13158              -0.03679474       -11.64913        -72.91813        138.6968             -200               0             -200               0
1.13816              -0.03810439       -11.75162        -72.18766         143.453             -200               0             -200               0
1.14474              -0.03948459       -11.85476        -71.26119        146.6772             -200               0             -200               0
1.15132              -0.04093537       -11.95852        -70.24197        148.3266             -200               0             -200               0
1.15789              -0.04245334       -12.06288        -69.20308        148.5907             -200               0             -200               0
1.16447               -0.0440314       -12.16783        -68.18757        147.7267             -200               0             -200               0
1.17105              -0.04566695       -12.27334         -67.2174        145.9762             -200               0             -200               0
1.17763              -0.04735494       -12.37942        -66.30192        143.5385             -200               0             -200               0
1.18421               -0.0490871       -12.48607        -65.44359        140.5693             -200               0             -200               0
1.19079              -0.05085897       -12.59329        -64.64138        137.1876             -200               0             -200               0
1.19737              -0.05266419        -12.7011         -63.8926        133.4842             -200               0             -200               0
1.20395              -0.05449619       -12.80953        -63.19395        129.5286             -200               0             -200               0
1.21053              -0.05635174       -12.91861          -62.542        125.3742             -200               0             -200               0
1.21711              -0.05822253       -13.02838        -61.93347        121.0631             -200               0             -200               0
1.22368               -0.0601058        -13.1389        -61.36531        116.6284             -200               0             -200               0
1.23026              -0.06199871        -13.2502        -60.83476        112.0966             -200               0             -200               0
1.23684              -0.06389999       -13.36236        -60.33935        107.4894             -200               0             -200               0
1.24342              -0.06580685       -13.47542        -59.87687        102.8248             -200               0             -200               0
1.25                 -0.06771943       -13.58946        -59.44535        98.11762             -200               0             -200               0
1.25658              -0.06963932       -13.70454        -59.04306        93.38082             -200               0             -200               0
1.26316              -0.07157037       -13.82071        -58.66845        88.62547             -200               0             -200               0
1.26974              -0.07351633       -13.93805        -58.32013        83.86139             -200               0             -200               0
1.27632              -0.07547969       -14.05662        -57.99686        79.09739             -200               0             -200               0
1.28289              -0.07746943       -14.17646        -57.69753        74.34155             -200               0             -200               0
1.28947              -0.07949105       -14.29762        -57.42112        69.60139             -200               0             -200               0
1.29605              -0.08155304       -14.42016        -57.16673        64.88403             -200               0             -200               0
1.30263              -0.08366422        -14.5441        -56.93349        60.19635             -200               0             -200               0
1.30921              -0.08583145       -14.66948        -56.72061        55.54508             -200               0             -200               0
1.31579              -0.08806459       -14.79631        -56.52734        50.93691             -200               0             -200               0
1.32237              -0.09037435       -14.92462        -56.35294        46.37856             -200               0             -200               0
1.32895              -0.09276917       -15.05439         -56.1967        41.87686             -200               0             -200               0
1.33553              -0.09525489       -15.18564        -56.05788        37.43878             -200               0             -200               0
1.34211              -0.09784171       -15.31835        -55.93573        33.07151             -200               0             -200               0
1.34868               -0.1005361       -15.45251        -55.82946        28.78249             -200               0             -200               0
1.35526                -0.103344        -15.5881        -55.73819        24.57938             -200               0             -200               0
1.36184               -0.1062706       -15.72508        -55.66098        20.47012             -200               0             -200               0
1.36842               -0.1093201       -15.86344        -55.59676        16.46284             -200               0             -200               0
1.375                 -0.1124919       -16.00314        -55.54433        12.56583             -200               0             -200               0
1.38158               -0.1157919       -16.14417        -55.50231        8.787435             -200               0             -200               0
1.38816               -0.1192151       -16.28648        -55.46914        5.135884             -200               0             -200               0
1.39474               -0.1227633       -16.43007        -55.44301        1.619086             -200               0             -200               0
1.40132               -0.1264331        -16.5749        -55.42189       -1.755663             -200               0             -200               0
1.40789                 -0.13022       -16.72098        -55.40344       -4.982038             -200               0             -200               0
1.41447               -0.1341197        -16.8683        -55.38508        -8.05514             -200               0             -200               0
1.42105               -0.1381257       -17.01686        -55.36393       -10.97201             -200               0             -200               0
1.42763               -0.1422347       -17.16669        -55.33688        -13.7322             -200               0             -200               0
1.43421               -0.1464394       -17.31779        -55.30063       -16.33837             -200               0             -200               0
1.44079               -0.1507314       -17.47023        -55.25177       -18.79686             -200               0             -200               0
1.44737               -0.1551064       -17.62403        -55.18692       -21.11807             -200               0             -200               0
1.45395                 -0.15956       -17.77927        -55.10283       -23.31676             -200               0             -200               0
1.46053               -0.1640853         -17.936        -54.99663       -25.41198             -200               0             -200               0
1.46711               -0.1686799       -18.09431        -54.86591       -27.42665             -200               0             -200               0
1.47368               -0.1733407       -18.25429        -54.70895       -29.38679             -200               0             -200               0
1.48026               -0.1780656       -18.41604        -54.52479       -31.32047             -200               0             -200               0
1.48684               -0.1828563       -18.57964        -54.31333       -33.25642             -200               0             -200               0
1.49342               -0.1877142       -18.74523         -54.0753       -35.22265             -200               0             -200               0
1.5                    -0.192643        -18.9129         -53.8122       -37.24515             -200               0             -200               0
1.50658               -0.1976497       -19.08276        -53.52623       -39.34672             -200               0             -200               0
1.51316               -0.2027412       -19.25493        -53.22004       -41.54629             -200               0             -200               0
1.51974               -0.2079263       -19.42952        -52.89662       -43.85843             -200               0             -200               0
1.52632               -0.2132184       -19.60664        -52.55912       -46.29341             -200               0             -200               0
1.53289               -0.2186299       -19.78637         -52.2107       -48.85732             -200               0             -200               0
1.53947               -0.2241753       -19.96882        -51.85441       -51.55258             -200               0             -200               0
1.54605               -0.2298695       -20.15407        -51.49308       -54.37852             -200               0             -200               0
1.55263               -0.2357315       -20.34219         -51.1293       -57.33189             -200               0             -200               0
1.55921               -0.2417777       -20.53324        -50.76536       -60.40749             -200               0             -200               0
1.56579               -0.2480276       -20.72729        -50.40326       -63.59871             -200               0             -200               0
1.57237               -0.2544977       -20.92436        -50.04471       -66.89793             -200               0             -200               0
1.57895               -0.2612101        -21.1245        -49.69115       -70.29692             -200               0             -200               0
1.58553                -0.268179       -21.32771        -49.34375       -73.78715             -200               0             -200               0
1.59211               -0.2754256       -21.53401        -49.00348       -77.35996             -200               0             -200               0
1.59868               -0.2829648        -21.7434         -48.6711       -81.00676             -200               0             -200               0
1.60526               -0.2908122       -21.95587        -48.34718       -84.71917             -200               0             -200               0
1.61184               -0.2989833       -22.17141        -48.03216       -88.48904             -200               0             -200               0
1.61842               -0.3074903          -22.39        -47.72634       -92.30855             -200               0             -200               0
1.625                 -0.3163433       -22.61161        -47.42989       -96.17018             -200               0             -200               0
1.63158               -0.3255537       -22.83623         -47.1429       -100.0668             -200               0             -200               0
1.63816               -0.3351291       -23.06384        -46.86536       -103.9916             -200               0             -200               0
1.64474               -0.3450745       -23.29443        -46.59719        -107.938             -200               0             -200               0
1.65132               -0.3553961       -23.52798        -46.33824       -111.9001             -200               0             -200               0
1.65789                -0.366096        -23.7645        -46.08831       -115.8718             -200               0             -200               0
1.66447               -0.3771767         -24.004         -45.8471       -119.8477             -200               0             -200               0
1.67105               -0.3886396        -24.2465        -45.61432       -123.8226             -200               0             -200               0
1.67763               -0.4004845       -24.49205        -45.38957       -127.7915             -200               0             -200               0
1.68421               -0.4127113       -24.74069        -45.17244       -131.7498             -200               0             -200               0
1.69079               -0.4253213        -24.9925        -44.96245        -135.693             -200               0             -200               0
1.69737                -0.438313       -25.24755        -44.75908       -139.6172             -200               0             -200               0
1.70395               -0.4516892       -25.50597        -44.56178       -143.5186             -200               0             -200               0
1.71053               -0.4654501       -25.76786        -44.36993       -147.3937             -200               0             -200               0
1.71711               -0.4795994       -26.03336        -44.18287       -151.2395             -200               0             -200               0
1.72368               -0.4941446       -26.30263        -43.99991       -155.0533             -200               0             -200               0
1.73026               -0.5090926       -26.57583        -43.82031       -158.8328             -200               0             -200               0
1.73684               -0.5244538       -26.85316        -43.64328       -162.5763             -200               0             -200               0
1.74342               -0.5402402       -27.13479        -43.46802       -166.2824             -200               0             -200               0
1.75                  -0.5564701       -27.42094        -43.29369       -169.9504             -200               0             -200               0
1.75658               -0.5731609       -27.71181        -43.11943       -173.5801             -200               0             -200               0
1.76316               -0.5903376       -28.00762        -42.94436        -177.172             -200               0             -200               0
1.76974               -0.6080267       -28.30859        -42.76762        179.2728             -200               0             -200               0
1.77632               -0.6262574       -28.61493        -42.58835        175.7524             -200               0             -200               0
1.78289               -0.6450641       -28.92686        -42.40572        172.2645             -200               0             -200               0
1.78947               -0.6644845       -29.24458        -42.21892        168.8057             -200               0             -200               0
1.79605               -0.6845577       -29.56831        -42.02723        165.3723             -200               0             -200               0
1.80263               -0.7053296       -29.89823        -41.82998        161.9598             -200               0             -200               0
1.80921               -0.7268463       -30.23454        -41.62659        158.5631             -200               0             -200               0
1.81579               -0.7491564        -30.5774        -41.41659        155.1767             -200               0             -200               0
1.82237               -0.7723144       -30.92698         -41.1996        151.7947             -200               0             -200               0
1.82895               -0.7963732       -31.28343        -40.97537        148.4109             -200               0             -200               0
1.83553               -0.8213893       -31.64687        -40.74379        145.0191             -200               0             -200               0
1.84211               -0.8474222       -32.01744        -40.50485        141.6129             -200               0             -200               0
1.84868               -0.8745296       -32.39523        -40.25867        138.1861             -200               0             -200               0
1.85526               -0.9027741       -32.78036        -40.00549        134.7327             -200               0             -200               0
1.86184                -0.932218       -33.17289        -39.74567         131.247             -200               0             -200               0
1.86842               -0.9629241       -33.57293        -39.47965         127.724             -200               0             -200               0
1.875                 -0.9949567       -33.98054        -39.20795        124.1588             -200               0             -200               0
1.88158                -1.028382       -34.39577        -38.93117        120.5473             -200               0             -200               0
1.88816                -1.063264       -34.81871        -38.64995        116.8861             -200               0             -200               0
1.89474                -1.099674       -35.24941        -38.36497        113.1721             -200               0             -200               0
1.90132                -1.137678       -35.68792        -38.07694        109.4032             -200               0             -200               0
1.90789                -1.177348       -36.13432        -37.78656        105.5775             -200               0             -200               0
1.91447                -1.218756       -36.58868        -37.49454        101.6939             -200               0             -200               0
1.92105                -1.261979       -37.05106        -37.20157        97.75173             -200               0             -200               0
1.92763                -1.307095       -37.52156        -36.90833        93.75086             -200               0             -200               0
1.93421                -1.354185       -38.00026        -36.61544        89.69151             -200               0             -200               0
1.94079                -1.403336       -38.48725        -36.32352        85.57426             -200               0             -200               0
1.94737                -1.454639       -38.98265        -36.03314        81.40005             -200               0             -200               0
1.95395                 -1.50819       -39.48655        -35.74482        77.17005             -200               0             -200               0
1.96053                -1.564095       -39.99909        -35.45905        72.88566             -200               0             -200               0
1.96711                -1.622461       -40.52036        -35.17627        68.54844             -200               0             -200               0
1.97368                -1.683408        -41.0505         -34.8969        64.16011             -200               0             -200               0
1.98026                -1.747062       -41.58961         -34.6213        59.72246             -200               0             -200               0
1.98684                -1.813558       -42.13781        -34.34981        55.23738             -200               0             -200               0
1.99342                -1.883045       -42.69518        -34.08272        50.70677             -200               0             -200               0
2                      -1.955677       -43.26182        -33.82029         46.1326             -200               0             -200               0
2.00658                -2.031624       -43.83777        -33.56276        41.51679             -200               0             -200               0
2.01316                -2.111066       -44.42307        -33.31033        36.86129             -200               0             -200               0
2.01974                -2.194197        -45.0177        -33.06319        32.16801             -200               0             -200               0
2.02632                -2.281223       -45.62162        -32.82149        27.43882             -200               0             -200               0
2.03289                -2.372364       -46.23473        -32.58537        22.67558             -200               0             -200               0
2.03947                -2.467855       -46.85685        -32.35494        17.88006             -200               0             -200               0
2.04605                -2.567944       -47.48778         -32.1303        13.05401             -200               0             -200               0
2.05263                -2.672897        -48.1272        -31.91154        8.199112             -200               0             -200               0
2.05921                -2.782993       -48.77472        -31.69873        3.317009             -200               0             -200               0
2.06579                -2.898526       -49.42987        -31.49192       -1.590726             -200               0             -200               0
2.07237                 -3.01981       -50.09205        -31.29117       -6.522569             -200               0             -200               0
2.07895                -3.147172       -50.76055        -31.09652       -11.47705             -200               0             -200               0
2.08553                -3.280959       -51.43456        -30.90798       -16.45277             -200               0             -200               0
2.09211                -3.421533       -52.11308        -30.72559       -21.44835             -200               0             -200               0
2.09868                -3.569275       -52.79502        -30.54935       -26.46248             -200               0             -200               0
2.10526                -3.724589       -53.47905        -30.37929       -31.49391             -200               0             -200               0
2.11184                -3.887892       -54.16372         -30.2154       -36.54141             -200               0             -200               0
2.11842                -4.059627       -54.84734         -30.0577       -41.60381             -200               0             -200               0
2.125                  -4.240256       -55.52801        -29.90616          -46.68             -200               0             -200               0
2.13158                -4.430264       -56.20359        -29.76079       -51.76886             -200               0             -200               0
2.13816                -4.630164       -56.87166        -29.62159       -56.86935             -200               0             -200               0
2.14474                -4.840491       -57.52948        -29.48853       -61.98044             -200               0             -200               0
2.15132                -5.061811       -58.17401        -29.36162       -67.10116             -200               0             -200               0
2.15789                -5.294716       -58.80177        -29.24083       -72.23054             -200               0             -200               0
2.16447                -5.539832       -59.40888        -29.12616       -77.36764             -200               0             -200               0
2.17105                 -5.79782       -59.99094        -29.01758       -82.51157             -200               0             -200               0
2.17763                -6.069376       -60.54299        -28.91507       -87.66145             -200               0             -200               0
2.18421                -6.355232       -61.05937        -28.81864        -92.8164             -200               0             -200               0
2.19079                -6.656163       -61.53368        -28.72824        -97.9756             -200               0             -200               0
2.19737                -6.972981       -61.95859        -28.64388       -103.1382             -200               0             -200               0
2.20395                -7.306538       -62.32571        -28.56553       -108.3034             -200               0             -200               0
2.21053                -7.657725       -62.62535        -28.49317       -113.4704             -200               0             -200               0
2.21711                -8.027463       -62.84634        -28.42678       -118.6385             -200               0             -200               0
2.22368                -8.416694       -62.97571        -28.36635       -123.8068             -200               0             -200               0
2.23026                -8.826359       -62.99825        -28.31187       -128.9745             -200               0             -200               0
2.23684                -9.257377       -62.89623         -28.2633        -134.141             -200               0             -200               0
2.24342                -9.710592       -62.64874        -28.22064       -139.3054             -200               0             -200               0
2.25                    -10.1867       -62.23104        -28.18386        -144.467             -200               0             -200               0
2.25658                -10.68616       -61.61396        -28.15295       -149.6251             -200               0             -200               0
2.26316                  -11.209       -60.76288         -28.1279       -154.7789             -200               0             -200               0
2.26974                -11.75463         -59.637        -28.10867       -159.9276             -200               0             -200               0
2.27632                -12.32144       -58.18852        -28.09526       -165.0704             -200               0             -200               0
2.28289                -12.90637       -56.36217        -28.08765       -170.2067             -200               0             -200               0
2.28947                -13.50421        -54.0957        -28.08581       -175.3356             -200               0             -200               0