! TOUCHSTONE file generated by CST MICROWAVE STUDIO
! Date and time: Tue Mar 18 00:01:47 2025
! Project name: oblique.cst
! Parameters = {Tilt=30; Fracture=1; B=12.5; D=160; F=25; Feed=2.85625; L=100; M=10; R=0.384908; S=2; Theta=270; length=57.125; wave=114.25}
! Header version: 2024
! Port assignment regex: !\s*Touchstone port\s*([0-9]+)\s*=\s*(CST MWS port|CST DES external port|CST DES block port)\s*(.+)\s* \(\"(.*)\"\)(\s*mode\s*([0-9]+))?.*
! Touchstone port assignment:
! Touchstone port 1 = CST MWS port 1 ("")
! Touchstone port 2 = CST MWS port 2 ("")
# GHz S DB R 50
1                    -0.01953388       -9.796297        -68.26501       -168.6503             -200               0             -200               0
1.0066                -0.0202715       -9.884729        -68.21419       -172.5248             -200               0             -200               0
1.0132               -0.02103693       -9.973672        -68.18119       -176.2353             -200               0             -200               0
1.0198               -0.02182764       -10.06313        -68.16397       -179.7674             -200               0             -200               0
1.0264               -0.02264319        -10.1531        -68.16009        176.8937             -200               0             -200               0
1.033                -0.02348085       -10.24361        -68.16662        173.7628             -200               0             -200               0
1.0396               -0.02434063       -10.33465        -68.18005         170.854             -200               0             -200               0
1.0462               -0.02521964       -10.42624        -68.19624        168.1796             -200               0             -200               0
1.05281              -0.02611652        -10.5184        -68.21037        165.7491             -200               0             -200               0
1.05941              -0.02702934       -10.61115        -68.21694        163.5677             -200               0             -200               0
1.06601              -0.02795973        -10.7045        -68.20982        161.6342             -200               0             -200               0
1.07261              -0.02890566       -10.79848        -68.18252        159.9394             -200               0             -200               0
1.07921              -0.02986642       -10.89311         -68.1284        158.4648             -200               0             -200               0
1.08581              -0.03084248       -10.98842        -68.04117         157.181             -200               0             -200               0
1.09241              -0.03183521       -11.08444        -67.91538        156.0486             -200               0             -200               0
1.09901              -0.03284392       -11.18118        -67.74691        155.0188             -200               0             -200               0
1.10561              -0.03387318       -11.27868        -67.53343        154.0369             -200               0             -200               0
1.11221              -0.03492221       -11.37695        -67.27468        153.0458             -200               0             -200               0
1.11881                -0.035994       -11.47603        -66.97242        151.9904             -200               0             -200               0
1.12541              -0.03709371       -11.57593        -66.63025        150.8213             -200               0             -200               0
1.13201              -0.03822067       -11.67667        -66.25315         149.498             -200               0             -200               0
1.13861              -0.03937964       -11.77827          -65.847        147.9903             -200               0             -200               0
1.14521              -0.04057486       -11.88074        -65.41805        146.2789             -200               0             -200               0
1.15182              -0.04180898        -11.9841        -64.97244        144.3539             -200               0             -200               0
1.15842              -0.04308551       -12.08834        -64.51595        142.2138             -200               0             -200               0
1.16502               -0.0444078       -12.19348        -64.05373        139.8635             -200               0             -200               0
1.17162              -0.04577892       -12.29952        -63.59024        137.3125             -200               0             -200               0
1.17822              -0.04720185       -12.40647        -63.12923        134.5737             -200               0             -200               0
1.18482              -0.04868039       -12.51431        -62.67378        131.6614             -200               0             -200               0
1.19142               -0.0502167       -12.62304        -62.22632         128.591             -200               0             -200               0
1.19802              -0.05181189       -12.73266        -61.78879         125.378             -200               0             -200               0
1.20462              -0.05346719       -12.84316        -61.36265        122.0375             -200               0             -200               0
1.21122               -0.0551849       -12.95454          -60.949        118.5842             -200               0             -200               0
1.21782              -0.05696514       -13.06679        -60.54862        115.0316             -200               0             -200               0
1.22442              -0.05880752       -13.17991        -60.16205        111.3926             -200               0             -200               0
1.23102              -0.06071225       -13.29388        -59.78964        107.6792             -200               0             -200               0
1.23762              -0.06267759       -13.40871        -59.43156        103.9025             -200               0             -200               0
1.24422              -0.06470308        -13.5244        -59.08786        100.0726             -200               0             -200               0
1.25083              -0.06678746       -13.64094         -58.7585        96.19917             -200               0             -200               0
1.25743              -0.06892712       -13.75835        -58.44335        92.29091             -200               0             -200               0
1.26403              -0.07112296       -13.87663        -58.14221        88.35602             -200               0             -200               0
1.27063              -0.07336987        -13.9958        -57.85484        84.40217             -200               0             -200               0
1.27723              -0.07566562       -14.11588        -57.58093         80.4365             -200               0             -200               0
1.28383              -0.07801139       -14.23687        -57.32017        76.46575             -200               0             -200               0
1.29043              -0.08040006       -14.35882        -57.07219        72.49627             -200               0             -200               0
1.29703              -0.08283418       -14.48175        -56.83658         68.5341             -200               0             -200               0
1.30363              -0.08530899       -14.60569        -56.61291        64.58497             -200               0             -200               0
1.31023              -0.08782494       -14.73067        -56.40072        60.65435             -200               0             -200               0
1.31683              -0.09038081       -14.85674        -56.19952        56.74749             -200               0             -200               0
1.32343              -0.09297611       -14.98393        -56.00878        52.86939             -200               0             -200               0
1.33003               -0.0956115       -15.11229        -55.82791        49.02485             -200               0             -200               0
1.33663              -0.09828687       -15.24187        -55.65632        45.21846             -200               0             -200               0
1.34323               -0.1010048        -15.3727        -55.49335        41.45456             -200               0             -200               0
1.34984               -0.1037661       -15.50483        -55.33829        37.73727             -200               0             -200               0
1.35644               -0.1065742       -15.63831        -55.19039        34.07042             -200               0             -200               0
1.36304               -0.1094316       -15.77319        -55.04885        30.45754             -200               0             -200               0
1.36964               -0.1123419       -15.90949        -54.91281         26.9018             -200               0             -200               0
1.37624               -0.1153095       -16.04727        -54.78135        23.40596             -200               0             -200               0
1.38284               -0.1183375       -16.18656         -54.6535         19.9723             -200               0             -200               0
1.38944               -0.1214312        -16.3274        -54.52825        16.60256             -200               0             -200               0
1.39604               -0.1245944       -16.46982        -54.40453        13.29785             -200               0             -200               0
1.40264               -0.1278329       -16.61386        -54.28123         10.0586             -200               0             -200               0
1.40924               -0.1311508       -16.75954        -54.15723        6.884444             -200               0             -200               0
1.41584               -0.1345528       -16.90688        -54.03139         3.77419             -200               0             -200               0
1.42244               -0.1380426       -17.05592        -53.90256       0.7257507             -200               0             -200               0
1.42904               -0.1416256       -17.20668        -53.76963       -2.263897             -200               0             -200               0
1.43564               -0.1453055       -17.35919        -53.63154       -5.198719             -200               0             -200               0
1.44224               -0.1490843       -17.51345        -53.48728       -8.083604             -200               0             -200               0
1.44884               -0.1529658       -17.66949        -53.33596       -10.92433             -200               0             -200               0
1.45545               -0.1569536       -17.82734        -53.17678       -13.72744             -200               0             -200               0
1.46205               -0.1610479       -17.98702        -53.00912       -16.50018             -200               0             -200               0
1.46865                -0.165252       -18.14857        -52.83247       -19.25029             -200               0             -200               0
1.47525               -0.1695661         -18.312        -52.64652       -21.98586             -200               0             -200               0
1.48185               -0.1739916       -18.47736        -52.45114       -24.71513             -200               0             -200               0
1.48845               -0.1785301       -18.64469        -52.24636       -27.44626             -200               0             -200               0
1.49505                -0.183181       -18.81402        -52.03239       -30.18717             -200               0             -200               0
1.50165               -0.1879455       -18.98542        -51.80962       -32.94531             -200               0             -200               0
1.50825               -0.1928252       -19.15894        -51.57856       -35.72757             -200               0             -200               0
1.51485                 -0.19782       -19.33464        -51.33984       -38.54005             -200               0             -200               0
1.52145                -0.202931       -19.51259        -51.09422       -41.38806             -200               0             -200               0
1.52805               -0.2081614       -19.69287         -50.8425       -44.27599             -200               0             -200               0
1.53465               -0.2135123       -19.87556        -50.58554       -47.20733             -200               0             -200               0
1.54125               -0.2189887       -20.06075        -50.32425       -50.18462             -200               0             -200               0
1.54785               -0.2245946       -20.24854        -50.05949       -53.20956             -200               0             -200               0
1.55446               -0.2303355       -20.43902        -49.79217       -56.28302             -200               0             -200               0
1.56106               -0.2362173        -20.6323         -49.5231        -59.4051             -200               0             -200               0
1.56766               -0.2422501       -20.82848        -49.25311       -62.57522             -200               0             -200               0
1.57426               -0.2484407       -21.02768        -48.98292       -65.79224             -200               0             -200               0
1.58086               -0.2548024          -21.23        -48.71322       -69.05448             -200               0             -200               0
1.58746               -0.2613471       -21.43556        -48.44463       -72.35987             -200               0             -200               0
1.59406               -0.2680893       -21.64446        -48.17768       -75.70598             -200               0             -200               0
1.60066               -0.2750417       -21.85682        -47.91286       -79.09013             -200               0             -200               0
1.60726               -0.2822254       -22.07272        -47.65058       -82.50943             -200               0             -200               0
1.61386               -0.2896546        -22.2923        -47.39116       -85.96085             -200               0             -200               0
1.62046               -0.2973515       -22.51561        -47.13488       -89.44128             -200               0             -200               0
1.62706               -0.3053352       -22.74278        -46.88195       -92.94757             -200               0             -200               0
1.63366               -0.3136284       -22.97386        -46.63251       -96.47656             -200               0             -200               0
1.64026               -0.3222531       -23.20895        -46.38666       -100.0251             -200               0             -200               0
1.64686               -0.3312323        -23.4481        -46.14442       -103.5903             -200               0             -200               0
1.65347               -0.3405898       -23.69139        -45.90579        -107.169             -200               0             -200               0
1.66007               -0.3503505       -23.93886         -45.6707       -110.7585             -200               0             -200               0
1.66667               -0.3605365       -24.19055        -45.43906       -114.3561             -200               0             -200               0
1.67327                -0.371173       -24.44651         -45.2107       -117.9592             -200               0             -200               0
1.67987               -0.3822849       -24.70677        -44.98544       -121.5656             -200               0             -200               0
1.68647               -0.3938939       -24.97136        -44.76308        -125.173             -200               0             -200               0
1.69307               -0.4060247        -25.2403        -44.54335       -128.7795             -200               0             -200               0
1.69967               -0.4187002       -25.51361        -44.32598       -132.3834             -200               0             -200               0
1.70627               -0.4319405        -25.7913        -44.11066       -135.9833             -200               0             -200               0
1.71287               -0.4457697        -26.0734        -43.89708       -139.5779             -200               0             -200               0
1.71947               -0.4602071       -26.35991        -43.68489       -143.1663             -200               0             -200               0
1.72607               -0.4752716       -26.65087        -43.47374       -146.7479             -200               0             -200               0
1.73267               -0.4909851        -26.9463        -43.26327       -150.3221             -200               0             -200               0
1.73927               -0.5073656       -27.24621         -43.0531        -153.889             -200               0             -200               0
1.74587               -0.5244321       -27.55066        -42.84289       -157.4488             -200               0             -200               0
1.75248               -0.5422029       -27.85968        -42.63225       -161.0019             -200               0             -200               0
1.75908               -0.5606976       -28.17333        -42.42086       -164.5491             -200               0             -200               0
1.76568               -0.5799338       -28.49168        -42.20836       -168.0914             -200               0             -200               0
1.77228               -0.5999321       -28.81479        -41.99446       -171.6303             -200               0             -200               0
1.77888               -0.6207137       -29.14276        -41.77885       -175.1672             -200               0             -200               0
1.78548                -0.642299       -29.47569        -41.56129       -178.7039             -200               0             -200               0
1.79208               -0.6647121       -29.81369        -41.34154        177.7575             -200               0             -200               0
1.79868               -0.6879795       -30.15688        -41.11942        174.2149             -200               0             -200               0
1.80528               -0.7121262       -30.50541        -40.89478         170.666             -200               0             -200               0
1.81188               -0.7371847       -30.85942        -40.66752        167.1083             -200               0             -200               0
1.81848               -0.7631865       -31.21908        -40.43756        163.5394             -200               0             -200               0
1.82508               -0.7901699       -31.58455        -40.20491        159.9567             -200               0             -200               0
1.83168               -0.8181748       -31.95602        -39.96957        156.3577             -200               0             -200               0
1.83828               -0.8472448       -32.33366        -39.73163          152.74             -200               0             -200               0
1.84488               -0.8774287       -32.71767        -39.49118        149.1011             -200               0             -200               0
1.85149               -0.9087792       -33.10823        -39.24838        145.4388             -200               0             -200               0
1.85809               -0.9413553       -33.50553        -39.00341        141.7509             -200               0             -200               0
1.86469               -0.9752203       -33.90976        -38.75649        138.0355             -200               0             -200               0
1.87129                -1.010441        -34.3211        -38.50785        134.2906             -200               0             -200               0
1.87789                -1.047091       -34.73973        -38.25777        130.5148             -200               0             -200               0
1.88449                -1.085251        -35.1658        -38.00653        126.7065             -200               0             -200               0
1.89109                -1.125003       -35.59946        -37.75443        122.8646             -200               0             -200               0
1.89769                -1.166437       -36.04083        -37.50178         118.988             -200               0             -200               0
1.90429                -1.209649       -36.49004        -37.24889        115.0761             -200               0             -200               0
1.91089                 -1.25474       -36.94715        -36.99609        111.1281             -200               0             -200               0
1.91749                -1.301815       -37.41225        -36.74369        107.1437             -200               0             -200               0
1.92409                -1.350984       -37.88536        -36.49201        103.1227             -200               0             -200               0
1.93069                -1.402364       -38.36648        -36.24136        99.06512             -200               0             -200               0
1.93729                -1.456076       -38.85557        -35.99204        94.97103             -200               0             -200               0
1.94389                -1.512246       -39.35259        -35.74434        90.84072             -200               0             -200               0
1.9505                 -1.571005       -39.85742        -35.49855         86.6746             -200               0             -200               0
1.9571                 -1.632486       -40.36993        -35.25492        82.47322             -200               0             -200               0
1.9637                 -1.696831       -40.88993        -35.01371        78.23721             -200               0             -200               0
1.9703                  -1.76418       -41.41719        -34.77517         73.9673             -200               0             -200               0
1.9769                 -1.834685       -41.95145        -34.53951        69.66428             -200               0             -200               0
1.9835                 -1.908494       -42.49239        -34.30694        65.32904             -200               0             -200               0
1.9901                 -1.985764       -43.03964        -34.07766        60.96252             -200               0             -200               0
1.9967                 -2.066656        -43.5928        -33.85186        56.56566             -200               0             -200               0
2.0033                 -2.151331        -44.1514        -33.62969         52.1395             -200               0             -200               0
2.0099                 -2.239957       -44.71491        -33.41131        47.68506             -200               0             -200               0
2.0165                 -2.332706       -45.28277        -33.19686         43.2034             -200               0             -200               0
2.0231                 -2.429751       -45.85435        -32.98648         38.6956             -200               0             -200               0
2.0297                 -2.531274       -46.42895        -32.78027        34.16273             -200               0             -200               0
2.0363                 -2.637455       -47.00582        -32.57835        29.60586             -200               0             -200               0
2.0429                 -2.748484       -47.58414        -32.38081        25.02608             -200               0             -200               0
2.0495                 -2.864552       -48.16302        -32.18773        20.42446             -200               0             -200               0
2.05611                -2.985858        -48.7415        -31.99919        15.80207             -200               0             -200               0
2.06271                -3.112601       -49.31852        -31.81526        11.15995             -200               0             -200               0
2.06931                 -3.24499       -49.89297        -31.63599        6.499146             -200               0             -200               0
2.07591                -3.383238       -50.46363        -31.46145        1.820683             -200               0             -200               0
2.08251                -3.527565       -51.02916        -31.29167       -2.874434             -200               0             -200               0
2.08911                -3.678196       -51.58815         -31.1267        -7.58521             -200               0             -200               0
2.09571                -3.835361       -52.13906        -30.96657       -12.31067             -200               0             -200               0
2.10231                -3.999303       -52.68022         -30.8113       -17.04986             -200               0             -200               0
2.10891                -4.170267       -53.20981        -30.66092       -21.80184             -200               0             -200               0
2.11551                -4.348507       -53.72587        -30.51545        -26.5657             -200               0             -200               0
2.12211                -4.534286       -54.22625        -30.37491       -31.34052             -200               0             -200               0
2.12871                -4.727876       -54.70863        -30.23929       -36.12543             -200               0             -200               0
2.13531                -4.929553       -55.17046        -30.10861       -40.91956             -200               0             -200               0
2.14191                -5.139606       -55.60895        -29.98288       -45.72205             -200               0             -200               0
2.14851                 -5.35833       -56.02105        -29.86209       -50.53208             -200               0             -200               0
2.15512                -5.586025        -56.4034        -29.74624       -55.34882             -200               0             -200               0
2.16172                -5.822999       -56.75232        -29.63532       -60.17147             -200               0             -200               0
2.16832                -6.069566       -57.06372        -29.52933       -64.99924             -200               0             -200               0
2.17492                -6.326038       -57.33308        -29.42826       -69.83134             -200               0             -200               0
2.18152                -6.592731       -57.55541        -29.33209       -74.66703             -200               0             -200               0
2.18812                -6.869949       -57.72514        -29.24081       -79.50554             -200               0             -200               0
2.19472                -7.157994       -57.83609         -29.1544       -84.34613             -200               0             -200               0
2.20132                 -7.45714       -57.88134        -29.07285       -89.18808             -200               0             -200               0
2.20792                -7.767635       -57.85318        -28.99613       -94.03065             -200               0             -200               0
2.21452                 -8.08968       -57.74297        -28.92422       -98.87314             -200               0             -200               0
2.22112                -8.423416       -57.54105         -28.8571       -103.7148             -200               0             -200               0
2.22772                -8.768895       -57.23658        -28.79474       -108.5551             -200               0             -200               0
2.23432                -9.126047       -56.81746        -28.73711       -113.3931             -200               0             -200               0
2.24092                -9.494643       -56.27017        -28.68419       -118.2283             -200               0             -200               0
2.24752                -9.874241       -55.57965        -28.63595         -123.06             -200               0             -200               0
2.25413                -10.26411       -54.72926        -28.59234       -127.8874             -200               0             -200               0
2.26073                -10.66316       -53.70073        -28.55333         -132.71             -200               0             -200               0
2.26733                -11.06981       -52.47428        -28.51889        -137.527             -200               0             -200               0
2.27393                -11.48192       -51.02887        -28.48899       -142.3379             -200               0             -200               0
2.28053                -11.89658       -49.34276        -28.46356       -147.1419             -200               0             -200               0
2.28713                -12.30998       -47.39433        -28.44258       -151.9384             -200               0             -200               0
2.29373                -12.71729       -45.16355          -28.426       -156.7268             -200               0             -200               0