! TOUCHSTONE file generated by CST MICROWAVE STUDIO
! Date and time: Tue Mar 18 00:02:10 2025
! Project name: oblique.cst
! Parameters = {Tilt=40; Fracture=1; B=10; D=160; F=5; Feed=2.85625; L=100; M=50; R=0.384908; S=2; Theta=270; length=57.125; wave=114.25}
! Header version: 2024
! Port assignment regex: !\s*Touchstone port\s*([0-9]+)\s*=\s*(CST MWS port|CST DES external port|CST DES block port)\s*(.+)\s* \(\"(.*)\"\)(\s*mode\s*([0-9]+))?.*
! Touchstone port assignment:
! Touchstone port 1 = CST MWS port 1 ("")
! Touchstone port 2 = CST MWS port 2 ("")
# GHz S DB R 50
1                    -0.02165098       -9.783892        -66.97472        171.1217             -200               0             -200               0
1.00658              -0.02237624       -9.870614        -66.92634        165.6168             -200               0             -200               0
1.01316              -0.02310066       -9.957923        -66.90835        160.2039             -200               0             -200               0
1.01974              -0.02382609       -10.04585        -66.92115         154.891             -200               0             -200               0
1.02632              -0.02455333       -10.13444        -66.96527        149.6876             -200               0             -200               0
1.03289              -0.02528588       -10.22371        -67.04138        144.6056             -200               0             -200               0
1.03947               -0.0260271        -10.3137        -67.15026        139.6596             -200               0             -200               0
1.04605               -0.0267791       -10.40442        -67.29279        134.8672             -200               0             -200               0
1.05263              -0.02754804       -10.49591        -67.46986        130.2501             -200               0             -200               0
1.05921              -0.02833709       -10.58818        -67.68239        125.8345             -200               0             -200               0
1.06579              -0.02915117       -10.68125        -67.93112        121.6529             -200               0             -200               0
1.07237              -0.02999475       -10.77513         -68.2165         117.745             -200               0             -200               0
1.07895              -0.03087288       -10.86981        -68.53839        114.1591             -200               0             -200               0
1.08553              -0.03179188       -10.96531        -68.89559        110.9545             -200               0             -200               0
1.09211              -0.03275458       -11.06162        -69.28524        108.2023             -200               0             -200               0
1.09868              -0.03376584       -11.15874        -69.70172        105.9864             -200               0             -200               0
1.10526              -0.03482929       -11.25664        -70.13534        104.4019             -200               0             -200               0
1.11184              -0.03594856       -11.35532        -70.57041        103.5483             -200               0             -200               0
1.11842              -0.03712686       -11.45475        -70.98336        103.5151             -200               0             -200               0
1.125                -0.03836586       -11.55492        -71.34135        104.3542             -200               0             -200               0
1.13158              -0.03966585       -11.65581        -71.60348        106.0405             -200               0             -200               0
1.13816              -0.04102909        -11.7574        -71.72634        108.4304             -200               0             -200               0
1.14474               -0.0424538       -11.85966        -71.67469        111.2463             -200               0             -200               0
1.15132              -0.04393955       -11.96257        -71.43338         114.114             -200               0             -200               0
1.15789              -0.04548445       -12.06613        -71.01327        116.6508             -200               0             -200               0
1.16447               -0.0470864        -12.1703        -70.44692        118.5593             -200               0             -200               0
1.17105              -0.04874227       -12.27509        -69.77706        119.6742             -200               0             -200               0
1.17763              -0.05044806       -12.38048        -69.04535        119.9538             -200               0             -200               0
1.18421              -0.05219927       -12.48648        -68.28592        119.4411             -200               0             -200               0
1.19079              -0.05399264       -12.59309        -67.52366        118.2221             -200               0             -200               0
1.19737              -0.05582323       -12.70031        -66.77519        116.3968             -200               0             -200               0
1.20395              -0.05768578       -12.80817        -66.05088        114.0625             -200               0             -200               0
1.21053              -0.05957748       -12.91668        -65.35666        111.3059             -200               0             -200               0
1.21711              -0.06149169       -13.02587        -64.69555        108.2017             -200               0             -200               0
1.22368              -0.06342656       -13.13578        -64.06872         104.812             -200               0             -200               0
1.23026              -0.06537814       -13.24644        -63.47619        101.1884             -200               0             -200               0
1.23684              -0.06734271        -13.3579        -62.91731        97.37362             -200               0             -200               0
1.24342              -0.06931956       -13.47021        -62.39104        93.40283             -200               0             -200               0
1.25                 -0.07130613        -13.5834        -61.89618        89.30541             -200               0             -200               0
1.25658              -0.07330252       -13.69755        -61.43144        85.10592             -200               0             -200               0
1.26316              -0.07531065       -13.81269        -60.99554        80.82516             -200               0             -200               0
1.26974              -0.07732987       -13.92889        -60.58724        76.48088             -200               0             -200               0
1.27632              -0.07936375        -14.0462        -60.20535        72.08845             -200               0             -200               0
1.28289              -0.08141466       -14.16467        -59.84878        67.66133             -200               0             -200               0
1.28947              -0.08348774       -14.28435        -59.51647        63.21146             -200               0             -200               0
1.29605              -0.08558769        -14.4053        -59.20747        58.74962             -200               0             -200               0
1.30263              -0.08771977       -14.52755        -58.92086        54.28564             -200               0             -200               0
1.30921              -0.08988964       -14.65114         -58.6558         49.8287             -200               0             -200               0
1.31579              -0.09210472       -14.77612        -58.41146         45.3874             -200               0             -200               0
1.32237              -0.09437202       -14.90251         -58.1871        40.97001             -200               0             -200               0
1.32895              -0.09669709       -15.03032        -57.98194        36.58453             -200               0             -200               0
1.33553              -0.09908865       -15.15959        -57.79526        32.23884             -200               0             -200               0
1.34211               -0.1015527       -15.29032        -57.62631        27.94074             -200               0             -200               0
1.34868               -0.1040957       -15.42253        -57.47432        23.69805             -200               0             -200               0
1.35526               -0.1067241       -15.55621        -57.33849        19.51867             -200               0             -200               0
1.36184               -0.1094436       -15.69136        -57.21798        15.41059             -200               0             -200               0
1.36842               -0.1122593       -15.82799        -57.11185         11.3819             -200               0             -200               0
1.375                 -0.1151746       -15.96608        -57.01908        7.440833             -200               0             -200               0
1.38158                -0.118193       -16.10563        -56.93853        3.595649             -200               0             -200               0
1.38816               -0.1213181       -16.24664         -56.8689       -0.145385             -200               0             -200               0
1.39474               -0.1245496       -16.38909        -56.80875       -3.774137             -200               0             -200               0
1.40132               -0.1278898       -16.53298        -56.75642       -7.282775             -200               0             -200               0
1.40789               -0.1313388       -16.67831        -56.71004         -10.664             -200               0             -200               0
1.41447               -0.1348943       -16.82508         -56.6675       -13.91135             -200               0             -200               0
1.42105               -0.1385564       -16.97331        -56.62645       -17.01955             -200               0             -200               0
1.42763               -0.1423225       -17.12299        -56.58429       -19.98495             -200               0             -200               0
1.43421               -0.1461911       -17.27416        -56.53818       -22.80603             -200               0             -200               0
1.44079               -0.1501586       -17.42685         -56.4851       -25.48391             -200               0             -200               0
1.44737               -0.1542236       -17.58107        -56.42193       -28.02282             -200               0             -200               0
1.45395               -0.1583826       -17.73689        -56.34548       -30.43055             -200               0             -200               0
1.46053               -0.1626341       -17.89434        -56.25267       -32.71875             -200               0             -200               0
1.46711               -0.1669756       -18.05349        -56.14065       -34.90299             -200               0             -200               0
1.47368               -0.1714078       -18.21441        -56.00694       -37.00255             -200               0             -200               0
1.48026               -0.1759297       -18.37715        -55.84959       -39.03993             -200               0             -200               0
1.48684               -0.1805425        -18.5418         -55.6673          -41.04             -200               0             -200               0
1.49342               -0.1852479       -18.70845         -55.4595       -43.02896             -200               0             -200               0
1.5                   -0.1900491       -18.87717         -55.2264        -45.0331             -200               0             -200               0
1.50658                -0.194952       -19.04806        -54.96892       -47.07761             -200               0             -200               0
1.51316               -0.1999613       -19.22121        -54.68869       -49.18546             -200               0             -200               0
1.51974               -0.2050846        -19.3967        -54.38786       -51.37654             -200               0             -200               0
1.52632               -0.2103316       -19.57462        -54.06897       -53.66708             -200               0             -200               0
1.53289               -0.2157113       -19.75507        -53.73483        -56.0694             -200               0             -200               0
1.53947               -0.2212351       -19.93812        -53.38835       -58.59197             -200               0             -200               0
1.54605               -0.2269169       -20.12385        -53.03243       -61.23959             -200               0             -200               0
1.55263               -0.2327698       -20.31233        -52.66982        -64.0139             -200               0             -200               0
1.55921               -0.2388079       -20.50363        -52.30311       -66.91379             -200               0             -200               0
1.56579                -0.245046        -20.6978        -51.93464       -69.93599             -200               0             -200               0
1.57237               -0.2514997       -20.89491        -51.56648       -73.07551             -200               0             -200               0
1.57895               -0.2581856       -21.09498        -51.20047       -76.32612             -200               0             -200               0
1.58553               -0.2651187       -21.29805        -50.83814       -79.68077             -200               0             -200               0
1.59211               -0.2723152       -21.50415        -50.48083       -83.13182             -200               0             -200               0
1.59868               -0.2797898       -21.71329         -50.1296        -86.6714             -200               0             -200               0
1.60526               -0.2875569       -21.92551        -49.78536       -90.29152             -200               0             -200               0
1.61184               -0.2956321       -22.14079         -49.4488       -93.98427             -200               0             -200               0
1.61842                -0.304027       -22.35914        -49.12048       -97.74188             -200               0             -200               0
1.625                 -0.3127543       -22.58057         -48.8008       -101.5568             -200               0             -200               0
1.63158               -0.3218252       -22.80508        -48.49006       -105.4219             -200               0             -200               0
1.63816               -0.3312488       -23.03267        -48.18843         -109.33             -200               0             -200               0
1.64474               -0.3410343       -23.26334        -47.89603       -113.2747             -200               0             -200               0
1.65132               -0.3511889       -23.49709        -47.61285       -117.2495             -200               0             -200               0
1.65789               -0.3617185       -23.73395        -47.33885       -121.2485             -200               0             -200               0
1.66447               -0.3726307       -23.97392        -47.07392       -125.2658             -200               0             -200               0
1.67105               -0.3839273       -24.21704        -46.81787       -129.2961             -200               0             -200               0
1.67763               -0.3956147       -24.46335         -46.5705       -133.3343             -200               0             -200               0
1.68421               -0.4076969        -24.7129        -46.33152       -137.3753             -200               0             -200               0
1.69079               -0.4201765       -24.96574        -46.10062       -141.4145             -200               0             -200               0
1.69737               -0.4330581       -25.22197        -45.87746       -145.4476             -200               0             -200               0
1.70395               -0.4463454       -25.48165        -45.66161       -149.4704             -200               0             -200               0
1.71053               -0.4600448       -25.74492        -45.45266       -153.4791             -200               0             -200               0
1.71711               -0.4741621       -26.01186        -45.25011       -157.4699             -200               0             -200               0
1.72368               -0.4887058       -26.28263        -45.05345       -161.4395             -200               0             -200               0
1.73026               -0.5036846       -26.55737        -44.86212       -165.3849             -200               0             -200               0
1.73684               -0.5191118       -26.83622        -44.67552       -169.3033             -200               0             -200               0
1.74342                -0.535001       -27.11936        -44.49302       -173.1922             -200               0             -200               0
1.75                  -0.5513696       -27.40696        -44.31395       -177.0497             -200               0             -200               0
1.75658               -0.5682371        -27.6992        -44.13761        179.1259             -200               0             -200               0
1.76316               -0.5856254       -27.99628        -43.96325         175.336             -200               0             -200               0
1.76974                -0.603562       -28.29839        -43.79013        171.5811             -200               0             -200               0
1.77632               -0.6220742       -28.60571        -43.61748        167.8616             -200               0             -200               0
1.78289               -0.6411968       -28.91845        -43.44449        164.1771             -200               0             -200               0
1.78947               -0.6609643       -29.23678        -43.27039        160.5269             -200               0             -200               0
1.79605                -0.681416        -29.5609        -43.09439        156.9094             -200               0             -200               0
1.80263               -0.7025935       -29.89097        -42.91573        153.3226             -200               0             -200               0
1.80921               -0.7245434       -30.22718        -42.73368        149.7639             -200               0             -200               0
1.81579               -0.7473121       -30.56967        -42.54754        146.2299             -200               0             -200               0
1.82237                -0.770952       -30.91859         -42.3567         142.717             -200               0             -200               0
1.82895               -0.7955151       -31.27407        -42.16058        139.2207             -200               0             -200               0
1.83553               -0.8210559       -31.63625        -41.95871        135.7363             -200               0             -200               0
1.84211               -0.8476334       -32.00521         -41.7507        132.2586             -200               0             -200               0
1.84868               -0.8753051       -32.38105        -41.53627        128.7822             -200               0             -200               0
1.85526               -0.9041322       -32.76386        -41.31524        125.3015             -200               0             -200               0
1.86184               -0.9341758        -33.1537        -41.08753        121.8107             -200               0             -200               0
1.86842                -0.965499       -33.55063        -40.85319        118.3041             -200               0             -200               0
1.875                 -0.9981654       -33.95467        -40.61235        114.7762             -200               0             -200               0
1.88158                -1.032239       -34.36588        -40.36527        111.2217             -200               0             -200               0
1.88816                -1.067787       -34.78428        -40.11227        107.6356             -200               0             -200               0
1.89474                -1.104874       -35.20989        -39.85378        104.0132             -200               0             -200               0
1.90132                -1.143567       -35.64272        -39.59029        100.3505             -200               0             -200               0
1.90789                -1.183934       -36.08279        -39.32232        96.64374             -200               0             -200               0
1.91447                -1.226045       -36.53011        -39.05048        92.88982             -200               0             -200               0
1.92105                -1.269971       -36.98469        -38.77537        89.08617             -200               0             -200               0
1.92763                -1.315784       -37.44655        -38.49764         85.2307             -200               0             -200               0
1.93421                -1.363559       -37.91573        -38.21791        81.32189             -200               0             -200               0
1.94079                -1.413373       -38.39222        -37.93684        77.35866             -200               0             -200               0
1.94737                -1.465308       -38.87608        -37.65504        73.34041             -200               0             -200               0
1.95395                -1.519447       -39.36735        -37.37313        69.26694             -200               0             -200               0
1.96053                -1.575881       -39.86605        -37.09168        65.13842             -200               0             -200               0
1.96711                -1.634703       -40.37224        -36.81124        60.95535             -200               0             -200               0
1.97368                -1.696011       -40.88599        -36.53234         56.7185             -200               0             -200               0
1.98026                -1.759914       -41.40734        -36.25547        52.42891             -200               0             -200               0
1.98684                -1.826522       -41.93635        -35.98106        48.08778             -200               0             -200               0
1.99342                 -1.89596       -42.47308        -35.70955        43.69648             -200               0             -200               0
2                      -1.968356       -43.01757         -35.4413        39.25653             -200               0             -200               0
2.00658                -2.043849       -43.56987        -35.17666        34.76953             -200               0             -200               0
2.01316                -2.122587          -44.13        -34.91595        30.23715             -200               0             -200               0
2.01974                -2.204734       -44.69795        -34.65945        25.66111             -200               0             -200               0
2.02632                 -2.29046       -45.27374        -34.40742        21.04317             -200               0             -200               0
2.03289                -2.379947       -45.85727        -34.16006        16.38507             -200               0             -200               0
2.03947                -2.473393       -46.44848         -33.9176        11.68859             -200               0             -200               0
2.04605                -2.571008       -47.04722         -33.6802        6.955463             -200               0             -200               0
2.05263                -2.673015       -47.65333        -33.44801        2.187404             -200               0             -200               0
2.05921                -2.779653       -48.26653        -33.22119       -2.613897             -200               0             -200               0
2.06579                -2.891174       -48.88651        -32.99983       -7.446789             -200               0             -200               0
2.07237                -3.007846       -49.51289        -32.78405       -12.30966             -200               0             -200               0
2.07895                -3.129957       -50.14517        -32.57394       -17.20097             -200               0             -200               0
2.08553                -3.257805       -50.78277        -32.36956       -22.11917             -200               0             -200               0
2.09211                -3.391709         -51.425        -32.17099       -27.06281             -200               0             -200               0
2.09868                -3.532005       -52.07107        -31.97826       -32.03046             -200               0             -200               0
2.10526                -3.679048       -52.72001        -31.79144       -37.02076             -200               0             -200               0
2.11184                -3.833213       -53.37074        -31.61055       -42.03238             -200               0             -200               0
2.11842                -3.994893       -54.02202        -31.43562       -47.06404             -200               0             -200               0
2.125                  -4.164504        -54.6724        -31.26668        -52.1145             -200               0             -200               0
2.13158                -4.342484       -55.32028        -31.10373       -57.18259             -200               0             -200               0
2.13816                -4.529295        -55.9638         -30.9468       -62.26715             -200               0             -200               0
2.14474                -4.725422       -56.60089        -30.79589       -67.36707             -200               0             -200               0
2.15132                -4.931381       -57.22919          -30.651        -72.4813             -200               0             -200               0
2.15789                -5.147712       -57.84604        -30.51214       -77.60878             -200               0             -200               0
2.16447                -5.374992       -58.44843         -30.3793       -82.74854             -200               0             -200               0
2.17105                -5.613826         -59.033        -30.25249        -87.8996             -200               0             -200               0
2.17763                -5.864858       -59.59588        -30.13169       -93.06102             -200               0             -200               0
2.18421                -6.128769       -60.13277        -30.01689        -98.2319             -200               0             -200               0
2.19079                -6.406284       -60.63871        -29.90809       -103.4114             -200               0             -200               0
2.19737                -6.698169       -61.10811        -29.80529       -108.5985             -200               0             -200               0
2.20395                -7.005238       -61.53455        -29.70846       -113.7926             -200               0             -200               0
2.21053                -7.328354       -61.91067         -29.6176       -118.9927             -200               0             -200               0
2.21711                -7.668429       -62.22802         -29.5327       -124.1981             -200               0             -200               0
2.22368                -8.026423        -62.4768        -29.45375        -129.408             -200               0             -200               0
2.23026                -8.403341        -62.6456        -29.38073       -134.6217             -200               0             -200               0
2.23684                -8.800222       -62.72116        -29.31363       -139.8383             -200               0             -200               0
2.24342                -9.218125       -62.68784        -29.25244       -145.0571             -200               0             -200               0
2.25                   -9.658095       -62.52719        -29.19715       -150.2775             -200               0             -200               0
2.25658                -10.12113       -62.21741        -29.14775       -155.4987             -200               0             -200               0
2.26316                -10.60809       -61.73249        -29.10423       -160.7199             -200               0             -200               0
2.26974                -11.11961       -61.04146        -29.06657       -165.9405             -200               0             -200               0
2.27632                -11.65591       -60.10726        -29.03476       -171.1598             -200               0             -200               0
2.28289                -12.21653        -58.8858         -29.0088        -176.377             -200               0             -200               0
2.28947                -12.79998       -57.32482        -28.98867        178.4085             -200               0             -200               0