! TOUCHSTONE file generated by CST MICROWAVE STUDIO
! Date and time: Tue Mar 18 00:02:04 2025
! Project name: oblique.cst
! Parameters = {Tilt=40; Fracture=1; B=10; D=160; F=5; Feed=2.85625; L=100; M=30; R=0.384908; S=1; Theta=270; length=57.125; wave=114.25}
! Header version: 2024
! Port assignment regex: !\s*Touchstone port\s*([0-9]+)\s*=\s*(CST MWS port|CST DES external port|CST DES block port)\s*(.+)\s* \(\"(.*)\"\)(\s*mode\s*([0-9]+))?.*
! Touchstone port assignment:
! Touchstone port 1 = CST MWS port 1 ("")
! Touchstone port 2 = CST MWS port 2 ("")
# GHz S DB R 50
1                    -0.02009865       -9.793469        -68.44955       -163.7871             -200               0             -200               0
1.00662              -0.02095546       -9.882328        -68.29288       -168.2237             -200               0             -200               0
1.01325              -0.02185269       -9.971556        -68.16158        -172.596             -200               0             -200               0
1.01987              -0.02278742       -10.06114        -68.05511       -176.8937             -200               0             -200               0
1.02649              -0.02375279       -10.15106        -67.97292        178.8943             -200               0             -200               0
1.03311              -0.02474233       -10.24133        -67.91447          174.78             -200               0             -200               0
1.03974              -0.02574986       -10.33196        -67.87912        170.7766             -200               0             -200               0
1.04636              -0.02676949       -10.42294        -67.86615        166.8985             -200               0             -200               0
1.05298              -0.02779453       -10.51431        -67.87466        163.1614             -200               0             -200               0
1.0596               -0.02881914        -10.6061        -67.90351        159.5827             -200               0             -200               0
1.06623              -0.02983877       -10.69835        -67.95122        156.1811             -200               0             -200               0
1.07285              -0.03084822       -10.79108        -68.01591        152.9769             -200               0             -200               0
1.07947              -0.03184459       -10.88437         -68.0951        149.9913             -200               0             -200               0
1.08609              -0.03282593       -10.97825        -68.18564        147.2466             -200               0             -200               0
1.09272              -0.03378965       -11.07279        -68.28349        144.7646             -200               0             -200               0
1.09934              -0.03473661       -11.16804         -68.3836        142.5658             -200               0             -200               0
1.10596              -0.03566724       -11.26407        -68.47979         140.667             -200               0             -200               0
1.11258              -0.03658447       -11.36092        -68.56472        139.0791             -200               0             -200               0
1.11921              -0.03749223       -11.45866        -68.62994        137.8038             -200               0             -200               0
1.12583              -0.03839422       -11.55733        -68.66622        136.8301             -200               0             -200               0
1.13245              -0.03929668       -11.65699         -68.6641        136.1315             -200               0             -200               0
1.13907              -0.04020657       -11.75767        -68.61464        135.6639             -200               0             -200               0
1.1457                -0.0411305       -11.85942        -68.51045        135.3664             -200               0             -200               0
1.15232              -0.04207692       -11.96225        -68.34658        135.1643             -200               0             -200               0
1.15894              -0.04305388       -12.06619        -68.12124        134.9754             -200               0             -200               0
1.16556              -0.04406877       -12.17124        -67.83608        134.7175             -200               0             -200               0
1.17219              -0.04513125       -12.27742        -67.49591        134.3164             -200               0             -200               0
1.17881              -0.04624756       -12.38472        -67.10795        133.7117             -200               0             -200               0
1.18543              -0.04742684       -12.49313        -66.68091        132.8603             -200               0             -200               0
1.19205              -0.04867382       -12.60262          -66.224        131.7363             -200               0             -200               0
1.19868               -0.0499949       -12.71317        -65.74616        130.3295             -200               0             -200               0
1.2053               -0.05139514       -12.82475        -65.25551        128.6422             -200               0             -200               0
1.21192              -0.05287811       -12.93734         -64.7591        126.6859             -200               0             -200               0
1.21854                -0.054445       -13.05089        -64.26273        124.4781             -200               0             -200               0
1.22517              -0.05609789       -13.16537        -63.77111        122.0397             -200               0             -200               0
1.23179              -0.05783487       -13.28075        -63.28788        119.3931             -200               0             -200               0
1.23841              -0.05965631       -13.39699        -62.81581        116.5609             -200               0             -200               0
1.24503              -0.06155746       -13.51406        -62.35694        113.5651             -200               0             -200               0
1.25166              -0.06353432       -13.63195        -61.91272        110.4264             -200               0             -200               0
1.25828              -0.06558309       -13.75063        -61.48414        107.1641             -200               0             -200               0
1.2649               -0.06769671        -13.8701        -61.07181         103.796             -200               0             -200               0
1.27152              -0.06986966       -13.99035        -60.67608        100.3384             -200               0             -200               0
1.27815              -0.07209426        -14.1114        -60.29705        96.80636             -200               0             -200               0
1.28477              -0.07436364       -14.23327        -59.93467         93.2134             -200               0             -200               0
1.29139              -0.07667023       -14.35598        -59.58876        89.57203             -200               0             -200               0
1.29801              -0.07900851       -14.47958        -59.25903         85.8937             -200               0             -200               0
1.30464              -0.08137111        -14.6041        -58.94511        82.18897             -200               0             -200               0
1.31126              -0.08375281       -14.72962        -58.64656        78.46761             -200               0             -200               0
1.31788              -0.08614899       -14.85618        -58.36287        74.73869             -200               0             -200               0
1.3245               -0.08855682       -14.98388        -58.09352         71.0107             -200               0             -200               0
1.33113              -0.09097331       -15.11278        -57.83789        67.29158             -200               0             -200               0
1.33775              -0.09339912       -15.24297        -57.59535        63.58881             -200               0             -200               0
1.34437              -0.09583505       -15.37453         -57.3652        59.90943             -200               0             -200               0
1.35099              -0.09828268       -15.50756         -57.1467        56.26009             -200               0             -200               0
1.35762               -0.1007472       -15.64213        -56.93906        52.64706             -200               0             -200               0
1.36424               -0.1032334       -15.77833         -56.7414         49.0762             -200               0             -200               0
1.37086               -0.1057483       -15.91625        -56.55283        45.55295             -200               0             -200               0
1.37748                -0.108302       -16.05595        -56.37234        42.08233             -200               0             -200               0
1.38411               -0.1109023       -16.19752        -56.19889        38.66886             -200               0             -200               0
1.39073               -0.1135606         -16.341        -56.03136        35.31649             -200               0             -200               0
1.39735               -0.1162886       -16.48645        -55.86854        32.02855             -200               0             -200               0
1.40397                -0.119097       -16.63393        -55.70919        28.80761             -200               0             -200               0
1.4106                -0.1219995       -16.78345        -55.55198        25.65544             -200               0             -200               0
1.41722                -0.125008       -16.93506        -55.39555        22.57288             -200               0             -200               0
1.42384               -0.1281345       -17.08876        -55.23848         19.5597             -200               0             -200               0
1.43046               -0.1313897       -17.24456        -55.07937        16.61457             -200               0             -200               0
1.43709               -0.1347859       -17.40247         -54.9168        13.73495             -200               0             -200               0
1.44371               -0.1383315       -17.56247        -54.74939        10.91706             -200               0             -200               0
1.45033                -0.142037       -17.72456        -54.57585        8.155838             -200               0             -200               0
1.45695               -0.1459091       -17.88873        -54.39497        5.445024             -200               0             -200               0
1.46358               -0.1499545       -18.05494        -54.20569        2.777209             -200               0             -200               0
1.4702                -0.1541775        -18.2232        -54.00712       0.1439914             -200               0             -200               0
1.47682               -0.1585825       -18.39346        -53.79855       -2.463833             -200               0             -200               0
1.48344               -0.1631707       -18.56574         -53.5795       -5.056036             -200               0             -200               0
1.49007               -0.1679444       -18.74001        -53.34975       -7.642687             -200               0             -200               0
1.49669                -0.172902       -18.91627        -53.10927       -10.23387             -200               0             -200               0
1.50331               -0.1780423       -19.09454        -52.85829       -12.83941             -200               0             -200               0
1.50993                -0.183363       -19.27482        -52.59726       -15.46856             -200               0             -200               0
1.51656               -0.1888631       -19.45716        -52.32682       -18.12984             -200               0             -200               0
1.52318               -0.1945376       -19.64157        -52.04775       -20.83079             -200               0             -200               0
1.5298                -0.2003852       -19.82812        -51.76101       -23.57784             -200               0             -200               0
1.53642                -0.206403       -20.01687         -51.4676       -26.37628             -200               0             -200               0
1.54305               -0.2125888       -20.20789        -51.16864       -29.23014             -200               0             -200               0
1.54967               -0.2189416       -20.40128        -50.86523       -32.14229             -200               0             -200               0
1.55629               -0.2254631       -20.59713        -50.55849       -35.11446             -200               0             -200               0
1.56291               -0.2321544       -20.79556        -50.24951        -38.1473             -200               0             -200               0
1.56954               -0.2390191       -20.99668        -49.93933       -41.24054             -200               0             -200               0
1.57616               -0.2460637       -21.20062        -49.62894       -44.39304             -200               0             -200               0
1.58278               -0.2532961       -21.40751        -49.31922       -47.60299             -200               0             -200               0
1.5894                -0.2607271        -21.6175        -49.01101       -50.86792             -200               0             -200               0
1.59603                -0.268369        -21.8307        -48.70504       -54.18493             -200               0             -200               0
1.60265               -0.2762377       -22.04726        -48.40195        -57.5507             -200               0             -200               0
1.60927               -0.2843503        -22.2673        -48.10229       -60.96162             -200               0             -200               0
1.61589               -0.2927276       -22.49096        -47.80654       -64.41388             -200               0             -200               0
1.62252               -0.3013918       -22.71836        -47.51508        -67.9035             -200               0             -200               0
1.62914                -0.310367       -22.94959        -47.22821       -71.42647             -200               0             -200               0
1.63576               -0.3196799       -23.18477        -46.94616       -74.97871             -200               0             -200               0
1.64238               -0.3293561       -23.42397        -46.66908       -78.55617             -200               0             -200               0
1.64901               -0.3394273       -23.66726        -46.39707       -82.15484             -200               0             -200               0
1.65563               -0.3499218        -23.9147        -46.13015       -85.77081             -200               0             -200               0
1.66225               -0.3608696       -24.16634        -45.86829       -89.40028             -200               0             -200               0
1.66887               -0.3723015        -24.4222        -45.61138       -93.03958             -200               0             -200               0
1.6755                -0.3842466       -24.68229        -45.35929        -96.6852             -200               0             -200               0
1.68212               -0.3967357       -24.94661        -45.11183       -100.3338             -200               0             -200               0
1.68874               -0.4097956       -25.21516        -44.86874       -103.9823             -200               0             -200               0
1.69536               -0.4234555        -25.4879        -44.62974       -107.6277             -200               0             -200               0
1.70199               -0.4377415       -25.76481         -44.3945       -111.2674             -200               0             -200               0
1.70861                -0.452676       -26.04585        -44.16265        -114.899             -200               0             -200               0
1.71523               -0.4682849       -26.33098         -43.9338       -118.5203             -200               0             -200               0
1.72185               -0.4845868       -26.62015        -43.70751       -122.1296             -200               0             -200               0
1.72848               -0.5016025       -26.91332        -43.48331       -125.7252             -200               0             -200               0
1.7351                -0.5193485       -27.21045        -43.26073       -129.3061             -200               0             -200               0
1.74172               -0.5378413       -27.51151        -43.03925       -132.8715             -200               0             -200               0
1.74834               -0.5570937       -27.81649        -42.81836       -136.4209             -200               0             -200               0
1.75497               -0.5771217       -28.12537        -42.59753       -139.9544             -200               0             -200               0
1.76159               -0.5979357       -28.43815        -42.37623       -143.4723             -200               0             -200               0
1.76821               -0.6195482       -28.75485        -42.15395       -146.9753             -200               0             -200               0
1.77483               -0.6419714       -29.07552        -41.93018       -150.4649             -200               0             -200               0
1.78146               -0.6652179        -29.4002        -41.70444       -153.9424             -200               0             -200               0
1.78808               -0.6893003       -29.72898        -41.47626         -157.41             -200               0             -200               0
1.7947                -0.7142337       -30.06194        -41.24523       -160.8701             -200               0             -200               0
1.80132               -0.7400363       -30.39921        -41.01097       -164.3253             -200               0             -200               0
1.80795               -0.7667252       -30.74092        -40.77315       -167.7787             -200               0             -200               0
1.81457               -0.7943239       -31.08722        -40.53152       -171.2335             -200               0             -200               0
1.82119               -0.8228588       -31.43826        -40.28587       -174.6933             -200               0             -200               0
1.82781                 -0.85236       -31.79424        -40.03605       -178.1616             -200               0             -200               0
1.83444               -0.8828629       -32.15535          -39.782        178.3579             -200               0             -200               0
1.84106               -0.9144064       -32.52178        -39.52371        174.8614             -200               0             -200               0
1.84768               -0.9470354       -32.89372        -39.26124        171.3453             -200               0             -200               0
1.8543                -0.9808015       -33.27139        -38.99473         167.806             -200               0             -200               0
1.86093                 -1.01576       -33.65499        -38.72435          164.24             -200               0             -200               0
1.86755                -1.051973        -34.0447        -38.45036        160.6441             -200               0             -200               0
1.87417                -1.089508       -34.44071        -38.17305        157.0154             -200               0             -200               0
1.88079                -1.128439       -34.84317        -37.89276        153.3511             -200               0             -200               0
1.88742                -1.168846       -35.25223        -37.60985        149.6489             -200               0             -200               0
1.89404                -1.210813       -35.66801        -37.32473        145.9067             -200               0             -200               0
1.90066                 -1.25443       -36.09061        -37.03783        142.1226             -200               0             -200               0
1.90728                -1.299793       -36.52008        -36.74957        138.2954             -200               0             -200               0
1.91391                   -1.347       -36.95646        -36.46041        134.4238             -200               0             -200               0
1.92053                -1.396156       -37.39975        -36.17079        130.5071             -200               0             -200               0
1.92715                -1.447368       -37.84989        -35.88116        126.5449             -200               0             -200               0
1.93377                -1.500745       -38.30681        -35.59194        122.5368             -200               0             -200               0
1.9404                 -1.556402       -38.77038        -35.30356        118.4829             -200               0             -200               0
1.94702                -1.614455       -39.24043        -35.01642        114.3834             -200               0             -200               0
1.95364                -1.675022       -39.71677        -34.73092        110.2389             -200               0             -200               0
1.96026                -1.738221       -40.19914        -34.44742          106.05             -200               0             -200               0
1.96689                -1.804174       -40.68724        -34.16627        101.8174             -200               0             -200               0
1.97351                -1.873002       -41.18076        -33.88779        97.54207             -200               0             -200               0
1.98013                -1.944826       -41.67933        -33.61229         93.2251             -200               0             -200               0
1.98675                -2.019769       -42.18254        -33.34004        88.86761             -200               0             -200               0
1.99338                -2.097954       -42.68995        -33.07131        84.47079             -200               0             -200               0
2                      -2.179504       -43.20109        -32.80633        80.03592             -200               0             -200               0
2.00662                -2.264541       -43.71544        -32.54532         75.5643             -200               0             -200               0
2.01325                -2.353191       -44.23246        -32.28848        71.05727             -200               0             -200               0
2.01987                -2.445576        -44.7516        -32.03598        66.51619             -200               0             -200               0
2.02649                -2.541821       -45.27222        -31.78798        61.94241             -200               0             -200               0
2.03311                -2.642055       -45.79372        -31.54464        57.33731             -200               0             -200               0
2.03974                -2.746404       -46.31544        -31.30607        52.70224             -200               0             -200               0
2.04636                -2.854997        -46.8367         -31.0724        48.03854             -200               0             -200               0
2.05298                 -2.96797       -47.35678        -30.84372        43.34755             -200               0             -200               0
2.0596                  -3.08546       -47.87495        -30.62012        38.63057             -200               0             -200               0
2.06623                -3.207606       -48.39041        -30.40168        33.88888             -200               0             -200               0
2.07285                -3.334556       -48.90238        -30.18848        29.12374             -200               0             -200               0
2.07947                -3.466462       -49.40998        -29.98056        24.33638             -200               0             -200               0
2.08609                -3.603485       -49.91235        -29.77799        19.52799             -200               0             -200               0
2.09272                -3.745793       -50.40852        -29.58079        14.69974             -200               0             -200               0
2.09934                -3.893562       -50.89751        -29.38901        9.852774             -200               0             -200               0
2.10596                -4.046981       -51.37822        -29.20268        4.988198             -200               0             -200               0
2.11258                -4.206246       -51.84952        -29.02182       0.1070888             -200               0             -200               0
2.11921                -4.371571       -52.31017        -28.84645       -4.789502             -200               0             -200               0
2.12583                -4.543179       -52.75881        -28.67659       -9.700556             -200               0             -200               0
2.13245                -4.721313       -53.19398        -28.51223       -14.62508             -200               0             -200               0
2.13907                -4.906222       -53.61406         -28.3534       -19.56211             -200               0             -200               0
2.1457                 -5.098183       -54.01729        -28.20009        -24.5107             -200               0             -200               0
2.15232                -5.297481       -54.40167        -28.05231       -29.46993             -200               0             -200               0
2.15894                -5.504425       -54.76503        -27.91005       -34.43892             -200               0             -200               0
2.16556                 -5.71934       -55.10493         -27.7733       -39.41679             -200               0             -200               0
2.17219                -5.942572       -55.41863        -27.64206       -44.40269             -200               0             -200               0
2.17881                -6.174483       -55.70305        -27.51633       -49.39579             -200               0             -200               0
2.18543                -6.415455       -55.95477        -27.39609       -54.39528             -200               0             -200               0
2.19205                -6.665889       -56.16987        -27.28132       -59.40036             -200               0             -200               0
2.19868                -6.926198       -56.34395        -27.17202       -64.41024             -200               0             -200               0
2.2053                 -7.196813       -56.47202        -27.06818       -69.42418             -200               0             -200               0
2.21192                -7.478168       -56.54843        -26.96977        -74.4414             -200               0             -200               0
2.21854                -7.770704       -56.56674        -26.87678       -79.46117             -200               0             -200               0
2.22517                -8.074856       -56.51964        -26.78919       -84.48277             -200               0             -200               0
2.23179                -8.391039       -56.39876        -26.70698       -89.50546             -200               0             -200               0
2.23841                -8.719639       -56.19461        -26.63014       -94.52853             -200               0             -200               0
2.24503                -9.060983       -55.89631        -26.55865       -99.55129             -200               0             -200               0
2.25166                -9.415316       -55.49148        -26.49248        -104.573             -200               0             -200               0
2.25828                -9.782758       -54.96596        -26.43161       -109.5931             -200               0             -200               0
2.2649                 -10.16325       -54.30368        -26.37602       -114.6107             -200               0             -200               0
2.27152                 -10.5565       -53.48639        -26.32569       -119.6252             -200               0             -200               0
2.27815                -10.96184       -52.49349        -26.28059        -124.636             -200               0             -200               0
2.28477                -11.37819       -51.30193         -26.2407       -129.6423             -200               0             -200               0
2.29139                -11.80381       -49.88629        -26.20599       -134.6435             -200               0             -200               0
2.29801                -12.23618       -48.21902        -26.17643       -139.6388             -200               0             -200               0