! TOUCHSTONE file generated by CST MICROWAVE STUDIO
! Date and time: Tue Mar 18 00:01:46 2025
! Project name: oblique.cst
! Parameters = {Tilt=30; Fracture=1; B=12.5; D=160; F=25; Feed=2.85625; L=100; M=10; R=0.384908; S=2; Theta=90; length=57.125; wave=114.25}
! Header version: 2024
! Port assignment regex: !\s*Touchstone port\s*([0-9]+)\s*=\s*(CST MWS port|CST DES external port|CST DES block port)\s*(.+)\s* \(\"(.*)\"\)(\s*mode\s*([0-9]+))?.*
! Touchstone port assignment:
! Touchstone port 1 = CST MWS port 1 ("")
! Touchstone port 2 = CST MWS port 2 ("")
# GHz S DB R 50
1                    -0.01951449       -9.796374        -68.28091       -168.5306             -200               0             -200               0
1.0066               -0.02025203       -9.884808        -68.22812       -172.3959             -200               0             -200               0
1.0132               -0.02101734       -9.973755          -68.193        -176.098             -200               0             -200               0
1.0198               -0.02180901       -10.06321         -68.1735       -179.6227             -200               0             -200               0
1.0264               -0.02262551       -10.15319        -68.16716        177.0444             -200               0             -200               0
1.033                -0.02346422        -10.2437        -68.17106         173.918             -200               0             -200               0
1.0396               -0.02432448       -10.33474        -68.18171        171.0118             -200               0             -200               0
1.0462               -0.02520403       -10.42633        -68.19499        168.3378             -200               0             -200               0
1.05281                -0.026102       -10.51849        -68.20613        165.9053             -200               0             -200               0
1.05941              -0.02701594       -10.61123        -68.20966        163.7189             -200               0             -200               0
1.06601              -0.02794699       -10.70458        -68.19955        161.7774             -200               0             -200               0
1.07261              -0.02889244       -10.79855         -68.1694        160.0714             -200               0             -200               0
1.07921              -0.02985388       -10.89318        -68.11269        158.5822             -200               0             -200               0
1.08581              -0.03083005       -10.98849        -68.02324         157.281             -200               0             -200               0
1.09241              -0.03182192       -11.08449        -67.89571        156.1287             -200               0             -200               0
1.09901              -0.03283181       -11.18123        -67.72608        155.0773             -200               0             -200               0
1.10561              -0.03386013       -11.27872        -67.51207        154.0731             -200               0             -200               0
1.11221               -0.0349088       -11.37699        -67.25341        153.0599             -200               0             -200               0
1.11881              -0.03598073       -11.47607        -66.95183        151.9835             -200               0             -200               0
1.12541              -0.03707842       -11.57596        -66.61084        150.7954             -200               0             -200               0
1.13201              -0.03820499        -11.6767        -66.23534        149.4557             -200               0             -200               0
1.13861              -0.03936349       -11.77829        -65.83108        147.9345             -200               0             -200               0
1.14521              -0.04055764       -11.88076        -65.40418        146.2125             -200               0             -200               0
1.15182              -0.04179073       -11.98412        -64.96071        144.2797             -200               0             -200               0
1.15842              -0.04306567       -12.08836        -64.50634        142.1345             -200               0             -200               0
1.16502              -0.04438682       -12.19351        -64.04617        139.7813             -200               0             -200               0
1.17162              -0.04575726       -12.29955        -63.58462        137.2295             -200               0             -200               0
1.17822              -0.04717959       -12.40649         -63.1254        134.4914             -200               0             -200               0
1.18482              -0.04865689       -12.51434        -62.67158        131.5812             -200               0             -200               0
1.19142              -0.05019241       -12.62308         -62.2256        128.5139             -200               0             -200               0
1.19802              -0.05178631       -12.73271        -61.78937        125.3048             -200               0             -200               0
1.20462              -0.05344135       -12.84322        -61.36438        121.9689             -200               0             -200               0
1.21122              -0.05515824        -12.9546        -60.95173        118.5204             -200               0             -200               0
1.21782              -0.05693769       -13.06686        -60.55221        114.9731             -200               0             -200               0
1.22442              -0.05878031       -13.17998        -60.16637        111.3396             -200               0             -200               0
1.23102              -0.06068468       -13.29396        -59.79456        107.6318             -200               0             -200               0
1.23762              -0.06265083        -13.4088        -59.43697        103.8606             -200               0             -200               0
1.24422              -0.06467703       -13.52449        -59.09367        100.0363             -200               0             -200               0
1.25083              -0.06676166       -13.64104         -58.7646        96.16834             -200               0             -200               0
1.25743              -0.06890277       -13.75846        -58.44966        92.26545             -200               0             -200               0
1.26403              -0.07109781       -13.87674        -58.14864        88.33581             -200               0             -200               0
1.27063               -0.0733462       -13.99592        -57.86132        84.38705             -200               0             -200               0
1.27723               -0.0756439       -14.11599        -57.58741        80.42629             -200               0             -200               0
1.28383                -0.077989       -14.23699        -57.32657        76.46026             -200               0             -200               0
1.29043              -0.08037974       -14.35894        -57.07845        72.49529             -200               0             -200               0
1.29703              -0.08281385       -14.48187        -56.84265         68.5374             -200               0             -200               0
1.30363              -0.08528916       -14.60581        -56.61874        64.59231             -200               0             -200               0
1.31023              -0.08780627       -14.73079        -56.40627         60.6655             -200               0             -200               0
1.31683              -0.09036217       -14.85685        -56.20474        56.76217             -200               0             -200               0
1.32343              -0.09295762       -14.98404        -56.01363        52.88733             -200               0             -200               0
1.33003              -0.09559368        -15.1124        -55.83236        49.04577             -200               0             -200               0
1.33663              -0.09826972       -15.24197        -55.66033        45.24205             -200               0             -200               0
1.34323               -0.1009868       -15.37279        -55.49689        41.48052             -200               0             -200               0
1.34984               -0.1037482       -15.50492        -55.34134        37.76526             -200               0             -200               0
1.35644                -0.106556        -15.6384        -55.19292        34.10011             -200               0             -200               0
1.36304                -0.109413       -15.77326        -55.05085        30.48857             -200               0             -200               0
1.36964               -0.1123228       -15.90956        -54.91426         26.9338             -200               0             -200               0
1.37624               -0.1152894       -16.04734        -54.78224        23.43855             -200               0             -200               0
1.38284               -0.1183164       -16.18663        -54.65383        20.00511             -200               0             -200               0
1.38944               -0.1214091       -16.32747        -54.52802        16.63518             -200               0             -200               0
1.39604               -0.1245722       -16.46989        -54.40375         13.3299             -200               0             -200               0
1.40264               -0.1278091       -16.61393        -54.27992        10.08967             -200               0             -200               0
1.40924               -0.1311257        -16.7596        -54.15541        6.914153             -200               0             -200               0
1.41584                -0.134527       -16.90696        -54.02908        3.802168             -200               0             -200               0
1.42244               -0.1380165         -17.056        -53.89981       0.7516434             -200               0             -200               0
1.42904               -0.1415986       -17.20677        -53.76648       -2.240411             -200               0             -200               0
1.43564               -0.1452767       -17.35927        -53.62803       -5.177925             -200               0             -200               0
1.44224               -0.1490551       -17.51354        -53.48348       -8.065747             -200               0             -200               0
1.44884               -0.1529357       -17.66958        -53.33192       -10.90959             -200               0             -200               0
1.45545               -0.1569224       -17.82744        -53.17257       -13.71597             -200               0             -200               0
1.46205               -0.1610167       -17.98714         -53.0048       -16.49204             -200               0             -200               0
1.46865               -0.1652204       -18.14869        -52.82812        -19.2455             -200               0             -200               0
1.47525               -0.1695339       -18.31213         -52.6422       -21.98437             -200               0             -200               0
1.48185               -0.1739601        -18.4775         -52.4469       -24.71681             -200               0             -200               0
1.48845                -0.178498       -18.64483        -52.24227       -27.45094             -200               0             -200               0
1.49505               -0.1831501       -18.81418        -52.02851       -30.19463             -200               0             -200               0
1.50165               -0.1879148       -18.98558        -51.80599        -32.9553             -200               0             -200               0
1.50825               -0.1927945       -19.15911        -51.57522       -35.73977             -200               0             -200               0
1.51485                 -0.19779       -19.33481        -51.33682       -38.55416             -200               0             -200               0
1.52145               -0.2029018       -19.51277        -51.09154       -41.40372             -200               0             -200               0
1.52805               -0.2081335       -19.69305        -50.84019       -44.29287             -200               0             -200               0
1.53465               -0.2134852       -19.87575         -50.5836       -47.22508             -200               0             -200               0
1.54125               -0.2189622       -20.06094        -50.32267       -50.20293             -200               0             -200               0
1.54785               -0.2245683       -20.24873        -50.05829       -53.22812             -200               0             -200               0
1.55446               -0.2303104       -20.43921        -49.79131       -56.30153             -200               0             -200               0
1.56106               -0.2361931       -20.63248        -49.52259       -59.42328             -200               0             -200               0
1.56766               -0.2422248       -20.82867        -49.25291       -62.59285             -200               0             -200               0
1.57426               -0.2484172       -21.02786        -48.98301        -65.8091             -200               0             -200               0
1.58086               -0.2547794       -21.23018        -48.71359       -69.07039             -200               0             -200               0
1.58746                -0.261323       -21.43573        -48.44523       -72.37467             -200               0             -200               0
1.59406               -0.2680647       -21.64463        -48.17851       -75.71955             -200               0             -200               0
1.60066               -0.2750178       -21.85698        -47.91387       -79.10237             -200               0             -200               0
1.60726               -0.2821999       -22.07289        -47.65174       -82.52026             -200               0             -200               0
1.61386                -0.289629       -22.29246        -47.39245       -85.97021             -200               0             -200               0
1.62046                -0.297325       -22.51577        -47.13628       -89.44915             -200               0             -200               0
1.62706               -0.3053078       -22.74293        -46.88342       -92.95393             -200               0             -200               0
1.63366               -0.3136002       -22.97402        -46.63403       -96.48142             -200               0             -200               0
1.64026               -0.3222229        -23.2091         -46.3882       -100.0285             -200               0             -200               0
1.64686               -0.3312008       -23.44826        -46.14596       -103.5922             -200               0             -200               0
1.65347               -0.3405579       -23.69155        -45.90731       -107.1696             -200               0             -200               0
1.66007               -0.3503163       -23.93902        -45.67218       -110.7577             -200               0             -200               0
1.66667               -0.3605005       -24.19072        -45.44047       -114.3541             -200               0             -200               0
1.67327               -0.3711364       -24.44669        -45.21203        -117.956             -200               0             -200               0
1.67987               -0.3822469       -24.70696        -44.98669       -121.5613             -200               0             -200               0
1.68647               -0.3938555       -24.97156        -44.76421       -125.1677             -200               0             -200               0
1.69307               -0.4059849       -25.24051        -44.54437       -128.7733             -200               0             -200               0
1.69967               -0.4186587       -25.51382        -44.32687       -132.3764             -200               0             -200               0
1.70627               -0.4318994       -25.79153        -44.11141       -135.9756             -200               0             -200               0
1.71287               -0.4457269       -26.07364        -43.89769       -139.5697             -200               0             -200               0
1.71947               -0.4601641       -26.36017        -43.68535       -143.1576             -200               0             -200               0
1.72607               -0.4752284       -26.65114        -43.47405       -146.7388             -200               0             -200               0
1.73267               -0.4909415       -26.94658        -43.26342       -150.3129             -200               0             -200               0
1.73927               -0.5073216       -27.24651         -43.0531       -153.8797             -200               0             -200               0
1.74587               -0.5243879       -27.55097        -42.84274       -157.4394             -200               0             -200               0
1.75248               -0.5421596          -27.86        -42.63196       -160.9926             -200               0             -200               0
1.75908               -0.5606544       -28.17367        -42.42042         -164.54             -200               0             -200               0
1.76568               -0.5798914       -28.49202         -42.2078       -168.0826             -200               0             -200               0
1.77228               -0.5998902       -28.81515        -41.99376       -171.6218             -200               0             -200               0
1.77888               -0.6206718       -29.14313        -41.77804       -175.1592             -200               0             -200               0
1.78548               -0.6422584       -29.47606        -41.56037       -178.6964             -200               0             -200               0
1.79208               -0.6646729       -29.81407        -41.34053        177.7644             -200               0             -200               0
1.79868               -0.6879401       -30.15727        -41.11833        174.2212             -200               0             -200               0
1.80528               -0.7120884       -30.50581        -40.89362        170.6716             -200               0             -200               0
1.81188               -0.7371471       -30.85983         -40.6663        167.1133             -200               0             -200               0
1.81848                -0.763151       -31.21949        -40.43631        163.5436             -200               0             -200               0
1.82508               -0.7901342       -31.58497        -40.20362        159.9602             -200               0             -200               0
1.83168                -0.818139       -31.95644        -39.96826        156.3605             -200               0             -200               0
1.83828               -0.8472085       -32.33409        -39.73031        152.7421             -200               0             -200               0
1.84488               -0.8773924        -32.7181        -39.48987        149.1026             -200               0             -200               0
1.85149               -0.9087445       -33.10867        -39.24708        145.4397             -200               0             -200               0
1.85809               -0.9413201       -33.50597        -39.00214        141.7512             -200               0             -200               0
1.86469               -0.9751842       -33.91021        -38.75525        138.0351             -200               0             -200               0
1.87129                -1.010405       -34.32156        -38.50665        134.2898             -200               0             -200               0
1.87789                -1.047055        -34.7402        -38.25662        130.5134             -200               0             -200               0
1.88449                -1.085213       -35.16627        -38.00543        126.7047             -200               0             -200               0
1.89109                -1.124965       -35.59994        -37.75338        122.8624             -200               0             -200               0
1.89769                  -1.1664       -36.04133        -37.50079        118.9856             -200               0             -200               0
1.90429                -1.209611       -36.49055        -37.24796        115.0733             -200               0             -200               0
1.91089                -1.254702       -36.94768        -36.99522        111.1251             -200               0             -200               0
1.91749                -1.301774        -37.4128        -36.74288        107.1405             -200               0             -200               0
1.92409                -1.350943       -37.88592        -36.49126        103.1194             -200               0             -200               0
1.93069                -1.402323       -38.36706        -36.24068        99.06175             -200               0             -200               0
1.93729                -1.456034       -38.85618        -35.99142        94.96761             -200               0             -200               0
1.94389                -1.512204       -39.35322        -35.74378        90.83729             -200               0             -200               0
1.9505                 -1.570962       -39.85807        -35.49804        86.67121             -200               0             -200               0
1.9571                 -1.632445       -40.37061        -35.25447        82.46989             -200               0             -200               0
1.9637                 -1.696789       -40.89063        -35.01331        78.23397             -200               0             -200               0
1.9703                  -1.76414       -41.41793        -34.77481        73.96416             -200               0             -200               0
1.9769                 -1.834644       -41.95222        -34.53919        69.66129             -200               0             -200               0
1.9835                 -1.908455       -42.49319        -34.30666        65.32621             -200               0             -200               0
1.9901                 -1.985727       -43.04047        -34.07742        60.95985             -200               0             -200               0
1.9967                 -2.066621       -43.59366        -33.85164        56.56318             -200               0             -200               0
2.0033                 -2.151297       -44.15228         -33.6295        52.13721             -200               0             -200               0
2.0099                 -2.239926       -44.71584        -33.41115        47.68297             -200               0             -200               0
2.0165                 -2.332678       -45.28373        -33.19672        43.20152             -200               0             -200               0
2.0231                 -2.429726       -45.85534        -32.98635        38.69393             -200               0             -200               0
2.0297                 -2.531252       -46.42997        -32.78016        34.16126             -200               0             -200               0
2.0363                 -2.637437       -47.00688        -32.57824        29.60461             -200               0             -200               0
2.0429                 -2.748471       -47.58523        -32.38071        25.02503             -200               0             -200               0
2.0495                 -2.864543       -48.16414        -32.18763        20.42361             -200               0             -200               0
2.05611                -2.985853       -48.74265        -31.99909        15.80141             -200               0             -200               0
2.06271                -3.112601       -49.31971        -31.81515        11.15948             -200               0             -200               0
2.06931                -3.244996       -49.89419        -31.63588        6.498852             -200               0             -200               0
2.07591                -3.383249       -50.46486        -31.46133        1.820555             -200               0             -200               0
2.08251                -3.527581       -51.03043        -31.29154       -2.874405             -200               0             -200               0
2.08911                -3.678218       -51.58945        -31.12656       -7.585035             -200               0             -200               0
2.09571                 -3.83539        -52.1404        -30.96641       -12.31036             -200               0             -200               0
2.10231                -3.999338       -52.68159        -30.81113       -17.04943             -200               0             -200               0
2.10891                -4.170308        -53.2112        -30.66073       -21.80131             -200               0             -200               0
2.11551                -4.348556       -53.72729        -30.51524       -26.56507             -200               0             -200               0
2.12211                -4.534343        -54.2277        -30.37468       -31.33981             -200               0             -200               0
2.12871                 -4.72794       -54.71011        -30.23904       -36.12465             -200               0             -200               0
2.13531                -4.929626       -55.17197        -30.10834       -40.91872             -200               0             -200               0
2.14191                -5.139687       -55.61049        -29.98259       -45.72118             -200               0             -200               0
2.14851                 -5.35842       -56.02262        -29.86178       -50.53118             -200               0             -200               0
2.15512                -5.586125         -56.405         -29.7459        -55.3479             -200               0             -200               0
2.16172                -5.823111       -56.75395        -29.63496       -60.17055             -200               0             -200               0
2.16832                -6.069688       -57.06538        -29.52895       -64.99833             -200               0             -200               0
2.17492                -6.326173       -57.33478        -29.42786       -69.83046             -200               0             -200               0
2.18152                -6.592879       -57.55714        -29.33166       -74.66619             -200               0             -200               0
2.18812                -6.870112        -57.7269        -29.24036       -79.50475             -200               0             -200               0
2.19472                -7.158172       -57.83787        -29.15393        -84.3454             -200               0             -200               0
2.20132                -7.457336       -57.88316        -29.07236       -89.18742             -200               0             -200               0
2.20792                -7.767848       -57.85502        -28.99562       -94.03007             -200               0             -200               0
2.21452                -8.089914       -57.74483         -28.9237       -98.87266             -200               0             -200               0
2.22112                -8.423673       -57.54291        -28.85656       -103.7145             -200               0             -200               0
2.22772                -8.769176       -57.23845        -28.79419       -108.5548             -200               0             -200               0
2.23432                -9.126353       -56.81934        -28.73655        -113.393             -200               0             -200               0
2.24092                -9.494978       -56.27202        -28.68361       -118.2283             -200               0             -200               0
2.24752                -9.874604       -55.58146        -28.63535       -123.0601             -200               0             -200               0
2.25413                -10.26451       -54.73102        -28.59173       -127.8877             -200               0             -200               0
2.26073                -10.66359       -53.70241        -28.55272       -132.7104             -200               0             -200               0
2.26733                -11.07028       -52.47585        -28.51828       -137.5276             -200               0             -200               0
2.27393                -11.48243       -51.03031        -28.48836       -142.3386             -200               0             -200               0
2.28053                -11.89713         -49.344        -28.46294       -147.1428             -200               0             -200               0
2.28713                -12.31057       -47.39535        -28.44196       -151.9395             -200               0             -200               0
2.29373                -12.71792       -45.16426        -28.42537        -156.728             -200               0             -200               0