! TOUCHSTONE file generated by CST MICROWAVE STUDIO
! Date and time: Tue Mar 18 00:01:32 2025
! Project name: oblique.cst
! Parameters = {Tilt=30; Fracture=1; B=12.5; D=160; F=15; Feed=2.85625; L=100; M=10; R=0.384908; S=1; Theta=270; length=57.125; wave=114.25}
! Header version: 2024
! Port assignment regex: !\s*Touchstone port\s*([0-9]+)\s*=\s*(CST MWS port|CST DES external port|CST DES block port)\s*(.+)\s* \(\"(.*)\"\)(\s*mode\s*([0-9]+))?.*
! Touchstone port assignment:
! Touchstone port 1 = CST MWS port 1 ("")
! Touchstone port 2 = CST MWS port 2 ("")
# GHz S DB R 50
1                    -0.01908791       -9.790944        -68.45096       -158.1875             -200               0             -200               0
1.00662              -0.01989073       -9.879821        -68.43905       -163.0035             -200               0             -200               0
1.01325              -0.02073013       -9.969071        -68.46457       -167.6931             -200               0             -200               0
1.01987              -0.02159977       -10.05869        -68.52827       -172.2379             -200               0             -200               0
1.02649              -0.02249532       -10.14866        -68.63103       -176.6159             -200               0             -200               0
1.03311              -0.02340958       -10.23901        -68.77382        179.2001             -200               0             -200               0
1.03974              -0.02433562       -10.32973        -68.95757        175.2435             -200               0             -200               0
1.04636              -0.02526728       -10.42086        -69.18302        171.5556             -200               0             -200               0
1.05298              -0.02619976       -10.51242        -69.45047        168.1874             -200               0             -200               0
1.0596               -0.02712756       -10.60445         -69.7593        165.2022             -200               0             -200               0
1.06623              -0.02804536       -10.69699        -70.10729        162.6774             -200               0             -200               0
1.07285              -0.02895033       -10.79009        -70.48957        160.7067             -200               0             -200               0
1.07947              -0.02984045       -10.88381        -70.89692        159.3996             -200               0             -200               0
1.08609              -0.03071312       -10.97819        -71.31355        158.8762             -200               0             -200               0
1.09272              -0.03156972       -11.07331        -71.71441        159.2523             -200               0             -200               0
1.09934               -0.0324106       -11.16923        -72.06288         160.608             -200               0             -200               0
1.10596              -0.03323911       -11.26599        -72.31113        162.9377             -200               0             -200               0
1.11258              -0.03405777       -11.36366        -72.40639         166.092             -200               0             -200               0
1.11921              -0.03487206       -11.46229        -72.30454        169.7485             -200               0             -200               0
1.12583              -0.03568827       -11.56193        -71.98654        173.4568             -200               0             -200               0
1.13245              -0.03651432       -11.66263        -71.46674        176.7571             -200               0             -200               0
1.13907              -0.03735579       -11.76442        -70.78642        179.3052             -200               0             -200               0
1.1457               -0.03822207       -11.86732        -69.99777       -179.0708             -200               0             -200               0
1.15232              -0.03912224       -11.97137        -69.14946       -178.3925             -200               0             -200               0
1.15894              -0.04006467       -12.07656        -68.27934       -178.5876             -200               0             -200               0
1.16556              -0.04105744       -12.18291        -67.41355       -179.5424             -200               0             -200               0
1.17219              -0.04211047       -12.29041        -66.56855        178.8644             -200               0             -200               0
1.17881               -0.0432313       -12.39904        -65.75387         176.745             -200               0             -200               0
1.18543              -0.04442626       -12.50879         -64.9744        174.1961             -200               0             -200               0
1.19205              -0.04570236       -12.61963        -64.23218        171.2983             -200               0             -200               0
1.19868              -0.04706569       -12.73153        -63.52745        168.1174             -200               0             -200               0
1.2053               -0.04851845       -12.84445        -62.85947        164.7074             -200               0             -200               0
1.21192              -0.05006492       -12.95835        -62.22692        161.1121             -200               0             -200               0
1.21854              -0.05170584        -13.0732        -61.62824        157.3671             -200               0             -200               0
1.22517              -0.05344196       -13.18896        -61.06172        153.5022             -200               0             -200               0
1.23179              -0.05527085       -13.30559        -60.52568        149.5417             -200               0             -200               0
1.23841              -0.05719133       -13.42306        -60.01848        145.5063             -200               0             -200               0
1.24503               -0.0591992       -13.54133        -59.53855        141.4133             -200               0             -200               0
1.25166              -0.06128984        -13.6604        -59.08441        137.2777             -200               0             -200               0
1.25828              -0.06345737       -13.78025        -58.65466        133.1125             -200               0             -200               0
1.2649               -0.06569501       -13.90087          -58.248        128.9289             -200               0             -200               0
1.27152              -0.06799724       -14.02226        -57.86318        124.7372             -200               0             -200               0
1.27815              -0.07035608       -14.14445        -57.49903        120.5463             -200               0             -200               0
1.28477              -0.07276556       -14.26745        -57.15444        116.3645             -200               0             -200               0
1.29139              -0.07521844        -14.3913        -56.82833        112.1994             -200               0             -200               0
1.29801              -0.07770862       -14.51604        -56.51966        108.0579             -200               0             -200               0
1.30464              -0.08023121       -14.64173         -56.2274        103.9466             -200               0             -200               0
1.31126              -0.08278122       -14.76842        -55.95054        99.87169             -200               0             -200               0
1.31788               -0.0853558       -14.89619        -55.68806        95.83888             -200               0             -200               0
1.3245               -0.08795362       -15.02511        -55.43893        91.85365             -200               0             -200               0
1.33113              -0.09057435       -15.15525         -55.2021        87.92114             -200               0             -200               0
1.33775              -0.09321799       -15.28669        -54.97649        84.04615             -200               0             -200               0
1.34437              -0.09588811       -15.41952        -54.76096        80.23313             -200               0             -200               0
1.35099               -0.0985887       -15.55382        -54.55435        76.48612             -200               0             -200               0
1.35762               -0.1013256       -15.68965        -54.35543        72.80869             -200               0             -200               0
1.36424               -0.1041067        -15.8271        -54.16292        69.20388             -200               0             -200               0
1.37086               -0.1069392       -15.96622        -53.97547        65.67407             -200               0             -200               0
1.37748                -0.109834       -16.10709         -53.7917        62.22092             -200               0             -200               0
1.38411                -0.112801       -16.24975        -53.61014        58.84525             -200               0             -200               0
1.39073                -0.115851       -16.39425        -53.42933        55.54689             -200               0             -200               0
1.39735               -0.1189969       -16.54061        -53.24776        52.32464             -200               0             -200               0
1.40397               -0.1222491       -16.68887        -53.06393         49.1761             -200               0             -200               0
1.4106                -0.1256196       -16.83903        -52.87635        46.09767             -200               0             -200               0
1.41722               -0.1291207        -16.9911         -52.6836        43.08445             -200               0             -200               0
1.42384               -0.1327617       -17.14508        -52.48435        40.13029             -200               0             -200               0
1.43046                -0.136552       -17.30094         -52.2774        37.22783             -200               0             -200               0
1.43709                -0.140502       -17.45868        -52.06168        34.36861             -200               0             -200               0
1.44371               -0.1446168       -17.61828        -51.83634        31.54321             -200               0             -200               0
1.45033               -0.1489027       -17.77969        -51.60074        28.74151             -200               0             -200               0
1.45695               -0.1533644        -17.9429        -51.35447        25.95294             -200               0             -200               0
1.46358               -0.1580042       -18.10787        -51.09737        23.16674             -200               0             -200               0
1.4702                -0.1628232       -18.27458        -50.82953        20.37229             -200               0             -200               0
1.47682               -0.1678204         -18.443        -50.55128        17.55935             -200               0             -200               0
1.48344               -0.1729935       -18.61313        -50.26315        14.71839             -200               0             -200               0
1.49007               -0.1783398       -18.78496        -49.96588        11.84076             -200               0             -200               0
1.49669               -0.1838554       -18.95848        -49.66035        8.918877             -200               0             -200               0
1.50331               -0.1895332       -19.13372        -49.34758        5.946339             -200               0             -200               0
1.50993               -0.1953681       -19.31071        -49.02866        2.917979             -200               0             -200               0
1.51656               -0.2013544       -19.48948        -48.70472      -0.1701191             -200               0             -200               0
1.52318               -0.2074858       -19.67009        -48.37693       -3.320673             -200               0             -200               0
1.5298                -0.2137564       -19.85261        -48.04643       -6.535263             -200               0             -200               0
1.53642               -0.2201614       -20.03714        -47.71435       -9.814439             -200               0             -200               0
1.54305               -0.2266972       -20.22376        -47.38172       -13.15783             -200               0             -200               0
1.54967               -0.2333612       -20.41258        -47.04955       -16.56428             -200               0             -200               0
1.55629               -0.2401532       -20.60374        -46.71875       -20.03193             -200               0             -200               0
1.56291               -0.2470753       -20.79737        -46.39015       -23.55841             -200               0             -200               0
1.56954               -0.2541313       -20.99361        -46.06448       -27.14087             -200               0             -200               0
1.57616               -0.2613265        -21.1926        -45.74241       -30.77612             -200               0             -200               0
1.58278               -0.2686715       -21.39449        -45.42451       -34.46073             -200               0             -200               0
1.5894                -0.2761774       -21.59945        -45.11127       -38.19105             -200               0             -200               0
1.59603               -0.2838589       -21.80761        -44.80311       -41.96335             -200               0             -200               0
1.60265               -0.2917326       -22.01912        -44.50038       -45.77381             -200               0             -200               0
1.60927               -0.2998189       -22.23413        -44.20334       -49.61858             -200               0             -200               0
1.61589               -0.3081399       -22.45277        -43.91221       -53.49385             -200               0             -200               0
1.62252               -0.3167194       -22.67515        -43.62715       -57.39583             -200               0             -200               0
1.62914               -0.3255847       -22.90138        -43.34825        -61.3208             -200               0             -200               0
1.63576               -0.3347617       -23.13155        -43.07557       -65.26512             -200               0             -200               0
1.64238               -0.3442806       -23.36575         -42.8091       -69.22525             -200               0             -200               0
1.64901               -0.3541711       -23.60403        -42.54882       -73.19776             -200               0             -200               0
1.65563               -0.3644626       -23.84644        -42.29464       -77.17933             -200               0             -200               0
1.66225               -0.3751847       -24.09301        -42.04644       -81.16679             -200               0             -200               0
1.66887               -0.3863677       -24.34374        -41.80407       -85.15706             -200               0             -200               0
1.6755                -0.3980407       -24.59864        -41.56734       -89.14725             -200               0             -200               0
1.68212               -0.4102298        -24.8577        -41.33604       -93.13458             -200               0             -200               0
1.68874               -0.4229611       -25.12089        -41.10991       -97.11645             -200               0             -200               0
1.69536               -0.4362607       -25.38817        -40.88867       -101.0904             -200               0             -200               0
1.70199               -0.4501495       -25.65951        -40.67201       -105.0543             -200               0             -200               0
1.70861               -0.4646481       -25.93487        -40.45961       -109.0059             -200               0             -200               0
1.71523               -0.4797741        -26.2142         -40.2511       -112.9434             -200               0             -200               0
1.72185               -0.4955442       -26.49746         -40.0461       -116.8651             -200               0             -200               0
1.72848               -0.5119712       -26.78463         -39.8442       -120.7697             -200               0             -200               0
1.7351                -0.5290674       -27.07568        -39.64498       -124.6559             -200               0             -200               0
1.74172               -0.5468428        -27.3706          -39.448       -128.5228             -200               0             -200               0
1.74834               -0.5653063        -27.6694         -39.2528       -132.3698             -200               0             -200               0
1.75497               -0.5844655       -27.97209        -39.05893       -136.1965             -200               0             -200               0
1.76159               -0.6043278       -28.27874         -38.8659       -140.0029             -200               0             -200               0
1.76821               -0.6249016       -28.58939        -38.67324       -143.7892             -200               0             -200               0
1.77483               -0.6461943       -28.90414        -38.48049        -147.556             -200               0             -200               0
1.78146                -0.668215       -29.22311        -38.28717       -151.3041             -200               0             -200               0
1.78808               -0.6909745       -29.54642        -38.09284       -155.0349             -200               0             -200               0
1.7947                -0.7144877       -29.87425        -37.89706       -158.7499             -200               0             -200               0
1.80132               -0.7387701       -30.20677        -37.69943       -162.4509             -200               0             -200               0
1.80795               -0.7638417       -30.54419        -37.49956       -166.1401             -200               0             -200               0
1.81457               -0.7897291       -30.88673        -37.29713         -169.82             -200               0             -200               0
1.82119               -0.8164596       -31.23464        -37.09183       -173.4932             -200               0             -200               0
1.82781               -0.8440707       -31.58815         -36.8834       -177.1625             -200               0             -200               0
1.83444               -0.8726005       -31.94753        -36.67166        179.1688             -200               0             -200               0
1.84106               -0.9020983       -32.31305        -36.45644        175.4977             -200               0             -200               0
1.84768               -0.9326171       -32.68497        -36.23766        171.8209             -200               0             -200               0
1.8543                -0.9642159       -33.06354        -36.01528        168.1351             -200               0             -200               0
1.86093               -0.9969616       -33.44903        -35.78932        164.4369             -200               0             -200               0
1.86755                -1.030928       -33.84166        -35.55985        160.7231             -200               0             -200               0
1.87417                -1.066195       -34.24165          -35.327        156.9907             -200               0             -200               0
1.88079                -1.102849        -34.6492        -35.09095        153.2365             -200               0             -200               0
1.88742                -1.140983       -35.06447        -34.85192        149.4578             -200               0             -200               0
1.89404                -1.180695       -35.48759        -34.61016         145.652             -200               0             -200               0
1.90066                -1.222088       -35.91867        -34.36598        141.8168             -200               0             -200               0
1.90728                -1.265272       -36.35777        -34.11969          137.95             -200               0             -200               0
1.91391                -1.310359        -36.8049        -33.87166        134.0498             -200               0             -200               0
1.92053                -1.357466       -37.26004        -33.62223        130.1146             -200               0             -200               0
1.92715                -1.406713       -37.72312         -33.3718        126.1431             -200               0             -200               0
1.93377                -1.458224       -38.19402        -33.12074        122.1343             -200               0             -200               0
1.9404                 -1.512124       -38.67258        -32.86944        118.0875             -200               0             -200               0
1.94702                 -1.56854       -39.15859        -32.61829        114.0021             -200               0             -200               0
1.95364                -1.627599        -39.6518        -32.36766        109.8778             -200               0             -200               0
1.96026                -1.689431       -40.15191        -32.11793        105.7146             -200               0             -200               0
1.96689                -1.754167       -40.65857        -31.86944        101.5126             -200               0             -200               0
1.97351                -1.821932       -41.17139        -31.62256        97.27209             -200               0             -200               0
1.98013                 -1.89286       -41.68995         -31.3776        92.99355             -200               0             -200               0
1.98675                -1.967077       -42.21378        -31.13487         88.6776             -200               0             -200               0
1.99338                -2.044712       -42.74237        -30.89468        84.32496             -200               0             -200               0
2                      -2.125896        -43.2752        -30.65729        79.93646             -200               0             -200               0
2.00662                -2.210753       -43.81169        -30.42296        75.51303             -200               0             -200               0
2.01325                -2.299412       -44.35125        -30.19193        71.05567             -200               0             -200               0
2.01987                -2.392003       -44.89324        -29.96443        66.56542             -200               0             -200               0
2.02649                -2.488653       -45.43701        -29.74066         62.0434             -200               0             -200               0
2.03311                -2.589492       -45.98188         -29.5208        57.49075             -200               0             -200               0
2.03974                -2.694653       -46.52715        -29.30503        52.90863             -200               0             -200               0
2.04636                 -2.80427       -47.07207        -29.09351        48.29822             -200               0             -200               0
2.05298                -2.918479       -47.61589        -28.88637        43.66072             -200               0             -200               0
2.0596                 -3.037423       -48.15783        -28.68374        38.99732             -200               0             -200               0
2.06623                -3.161248       -48.69704        -28.48575        34.30922             -200               0             -200               0
2.07285                -3.290105       -49.23269        -28.29248        29.59761             -200               0             -200               0
2.07947                -3.424154       -49.76386        -28.10404        24.86367             -200               0             -200               0
2.08609                -3.563562       -50.28961        -27.92052        20.10855             -200               0             -200               0
2.09272                -3.708504       -50.80896        -27.74197         15.3334             -200               0             -200               0
2.09934                -3.859169       -51.32081        -27.56848        10.53937             -200               0             -200               0
2.10596                -4.015751       -51.82405        -27.40008         5.72755             -200               0             -200               0
2.11258                -4.178462       -52.31744        -27.23684       0.8990445             -200               0             -200               0
2.11921                -4.347524       -52.79966         -27.0788       -3.945083             -200               0             -200               0
2.12583                -4.523177       -53.26927        -26.92599       -8.803778             -200               0             -200               0
2.13245                -4.705674       -53.72466        -26.77844       -13.67602             -200               0             -200               0
2.13907                -4.895285       -54.16412        -26.63619       -18.56079             -200               0             -200               0
2.1457                   -5.0923       -54.58571        -26.49924       -23.45711             -200               0             -200               0
2.15232                -5.297023       -54.98729        -26.36762       -28.36402             -200               0             -200               0
2.15894                -5.509779       -55.36646        -26.24134       -33.28054             -200               0             -200               0
2.16556                -5.730915       -55.72056        -26.12042       -38.20578             -200               0             -200               0
2.17219                -5.960793       -56.04659        -26.00485       -43.13881             -200               0             -200               0
2.17881                -6.199794       -56.34119        -25.89463       -48.07873             -200               0             -200               0
2.18543                 -6.44832       -56.60054        -25.78978       -53.02467             -200               0             -200               0
2.19205                -6.706787       -56.82036        -25.69029       -57.97577             -200               0             -200               0
2.19868                -6.975623       -56.99579        -25.59615       -62.93116             -200               0             -200               0
2.2053                 -7.255269       -57.12129        -25.50736          -67.89             -200               0             -200               0
2.21192                -7.546171       -57.19062         -25.4239       -72.85148             -200               0             -200               0
2.21854                -7.848764       -57.19664        -25.34577       -77.81478             -200               0             -200               0
2.22517                -8.163478       -57.13124        -25.27296       -82.77908             -200               0             -200               0
2.23179                -8.490706       -56.98517        -25.20544       -87.74359             -200               0             -200               0
2.23841                -8.830794       -56.74789        -25.14321        -92.7075             -200               0             -200               0
2.24503                -9.184011       -56.40734        -25.08624       -97.67004             -200               0             -200               0
2.25166                -9.550513       -55.94984        -25.03452       -102.6304             -200               0             -200               0
2.25828                -9.930291       -55.35976        -24.98802       -107.5879             -200               0             -200               0
2.2649                 -10.32311       -54.61939        -24.94672       -112.5416             -200               0             -200               0
2.27152                 -10.7284       -53.70875        -24.91059       -117.4909             -200               0             -200               0
2.27815                -11.14519       -52.60544        -24.87961       -122.4349             -200               0             -200               0
2.28477                -11.57193       -51.28465        -24.85375       -127.3728             -200               0             -200               0
2.29139                 -12.0063       -49.71944        -24.83298        -132.304             -200               0             -200               0
2.29801                -12.44504       -47.88124        -24.81725       -137.2277             -200               0             -200               0