! TOUCHSTONE file generated by CST MICROWAVE STUDIO
! Date and time: Tue Mar 18 00:03:06 2025
! Project name: oblique.cst
! Parameters = {Tilt=40; Fracture=1; B=12.5; D=160; F=25; Feed=2.85625; L=100; M=10; R=0.384908; S=2; Theta=270; length=57.125; wave=114.25}
! Header version: 2024
! Port assignment regex: !\s*Touchstone port\s*([0-9]+)\s*=\s*(CST MWS port|CST DES external port|CST DES block port)\s*(.+)\s* \(\"(.*)\"\)(\s*mode\s*([0-9]+))?.*
! Touchstone port assignment:
! Touchstone port 1 = CST MWS port 1 ("")
! Touchstone port 2 = CST MWS port 2 ("")
# GHz S DB R 50
1                    -0.01955303       -9.795786        -68.15059       -169.4322             -200               0             -200               0
1.0066               -0.02028696       -9.884184          -68.113       -173.3744             -200               0             -200               0
1.0132               -0.02104803       -9.973098        -68.09435       -177.1467             -200               0             -200               0
1.0198                -0.0218348       -10.06253        -68.09266        179.2666             -200               0             -200               0
1.0264               -0.02264526       -10.15248        -68.10553        175.8816             -200               0             -200               0
1.033                -0.02347875       -10.24297        -68.13002        172.7149             -200               0             -200               0
1.0396               -0.02433206       -10.33401        -68.16259        169.7828             -200               0             -200               0
1.0462               -0.02520547        -10.4256        -68.19894        167.0999             -200               0             -200               0
1.05281              -0.02609716       -10.51776          -68.234        164.6783             -200               0             -200               0
1.05941              -0.02700568       -10.61051        -68.26187        162.5257             -200               0             -200               0
1.06601              -0.02793054       -10.70388        -68.27592        160.6429             -200               0             -200               0
1.07261              -0.02887179       -10.79788        -68.26893        159.0222             -200               0             -200               0
1.07921              -0.02982885       -10.89253        -68.23346         157.645             -200               0             -200               0
1.08581              -0.03080211       -10.98787        -68.16235        156.4805             -200               0             -200               0
1.09241              -0.03179202       -11.08391        -68.04929        155.4856             -200               0             -200               0
1.09901              -0.03280047       -11.18069         -67.8895        154.6064             -200               0             -200               0
1.10561              -0.03382882       -11.27822        -67.68023        153.7815             -200               0             -200               0
1.11221              -0.03487858       -11.37652        -67.42114        152.9463             -200               0             -200               0
1.11881              -0.03595223       -11.47563        -67.11428        152.0386             -200               0             -200               0
1.12541              -0.03705326       -11.57556        -66.76381        151.0032             -200               0             -200               0
1.13201              -0.03818325       -11.67632        -66.37551        149.7954             -200               0             -200               0
1.13861              -0.03934641       -11.77794        -65.95609        148.3828             -200               0             -200               0
1.14521              -0.04054593       -11.88043        -65.51263        146.7453             -200               0             -200               0
1.15182              -0.04178409        -11.9838        -65.05201         144.874             -200               0             -200               0
1.15842              -0.04306474       -12.08805        -64.58059        142.7691             -200               0             -200               0
1.16502              -0.04439244       -12.19319        -64.10396        140.4378             -200               0             -200               0
1.17162              -0.04576858       -12.29922        -63.62689        137.8921             -200               0             -200               0
1.17822              -0.04719684       -12.40615        -63.15333        135.1471             -200               0             -200               0
1.18482              -0.04867972       -12.51398        -62.68643        132.2196             -200               0             -200               0
1.19142              -0.05021953       -12.62269         -62.2287        129.1267             -200               0             -200               0
1.19802              -0.05181786       -12.73228        -61.78203        125.8857             -200               0             -200               0
1.20462              -0.05347592       -12.84276        -61.34787        122.5131             -200               0             -200               0
1.21122               -0.0551954       -12.95411        -60.92724        119.0246             -200               0             -200               0
1.21782              -0.05697644       -13.06632        -60.52087        115.4348             -200               0             -200               0
1.22442              -0.05881923        -13.1794        -60.12923        111.7574             -200               0             -200               0
1.23102               -0.0607237       -13.29334        -59.75258        108.0049             -200               0             -200               0
1.23762              -0.06268732       -13.40813        -59.39104        104.1887             -200               0             -200               0
1.24422              -0.06471146       -13.52378        -59.04459        100.3197             -200               0             -200               0
1.25083              -0.06679226        -13.6403        -58.71314        96.40747             -200               0             -200               0
1.25743              -0.06892893       -13.75768         -58.3965        92.46117             -200               0             -200               0
1.26403              -0.07111982       -13.87594        -58.09442        88.48914             -200               0             -200               0
1.27063              -0.07336172       -13.99509        -57.80663        84.49921             -200               0             -200               0
1.27723               -0.0756538       -14.11516        -57.53278        80.49866             -200               0             -200               0
1.28383              -0.07799246       -14.23615        -57.27251        76.49433             -200               0             -200               0
1.29043              -0.08037704        -14.3581        -57.02543        72.49269             -200               0             -200               0
1.29703               -0.0828047       -14.48103         -56.7911        68.49986             -200               0             -200               0
1.30363              -0.08527541       -14.60498        -56.56907        64.52167             -200               0             -200               0
1.31023              -0.08778613       -14.72997        -56.35886        60.56367             -200               0             -200               0
1.31683              -0.09033748       -14.85606        -56.15994        56.63118             -200               0             -200               0
1.32343              -0.09292975       -14.98328        -55.97176        52.72932             -200               0             -200               0
1.33003              -0.09556246       -15.11168        -55.79373        48.86297             -200               0             -200               0
1.33663              -0.09823564       -15.24128        -55.62523        45.03682             -200               0             -200               0
1.34323               -0.1009523       -15.37215        -55.46556        41.25532             -200               0             -200               0
1.34984               -0.1037139       -15.50432        -55.31401        37.52269             -200               0             -200               0
1.35644               -0.1065223       -15.63783         -55.1698        33.84286             -200               0             -200               0
1.36304               -0.1093816       -15.77274        -55.03209        30.21948             -200               0             -200               0
1.36964               -0.1122939       -15.90907        -54.89999        26.65582             -200               0             -200               0
1.37624               -0.1152642       -16.04688        -54.77257        23.15473             -200               0             -200               0
1.38284               -0.1182961        -16.1862         -54.6488        19.71858             -200               0             -200               0
1.38944                -0.121394       -16.32706        -54.52763        16.34917             -200               0             -200               0
1.39604               -0.1245631       -16.46949        -54.40795        13.04766             -200               0             -200               0
1.40264               -0.1278067       -16.61354        -54.28862        9.814468             -200               0             -200               0
1.40924               -0.1311299       -16.75922        -54.16844        6.649215             -200               0             -200               0
1.41584               -0.1345375       -16.90657        -54.04624        3.550629             -200               0             -200               0
1.42244               -0.1380337       -17.05561         -53.9208        0.516492             -200               0             -200               0
1.42904                -0.141622       -17.20635        -53.79098         -2.4564             -200               0             -200               0
1.43564               -0.1453062       -17.35883        -53.65565       -5.372256             -200               0             -200               0
1.44224               -0.1490895       -17.51307        -53.51377       -8.236268             -200               0             -200               0
1.44884               -0.1529753       -17.66909        -53.36439       -11.05455             -200               0             -200               0
1.45545               -0.1569656       -17.82691        -53.20672       -13.83408             -200               0             -200               0
1.46205               -0.1610624       -17.98656        -53.04007       -16.58251             -200               0             -200               0
1.46865                -0.165268       -18.14807        -52.86396       -19.30804             -200               0             -200               0
1.47525               -0.1695829       -18.31146        -52.67807       -22.01923             -200               0             -200               0
1.48185               -0.1740089       -18.47679        -52.48228       -24.72476             -200               0             -200               0
1.48845               -0.1785459       -18.64408        -52.27666       -27.43321             -200               0             -200               0
1.49505                -0.183196       -18.81339        -52.06145       -30.15289             -200               0             -200               0
1.50165               -0.1879581       -18.98475        -51.83708       -32.89159             -200               0             -200               0
1.50825               -0.1928344       -19.15824        -51.60412       -35.65643             -200               0             -200               0
1.51485               -0.1978251       -19.33392        -51.36325       -38.45372             -200               0             -200               0
1.52145               -0.2029324       -19.51185        -51.11529       -41.28888             -200               0             -200               0
1.52805               -0.2081573       -19.69212         -50.8611       -44.16636             -200               0             -200               0
1.53465               -0.2135054        -19.8748         -50.6016       -47.08964             -200               0             -200               0
1.54125                -0.218977       -20.05999        -50.33773       -50.06122             -200               0             -200               0
1.54785                -0.224578       -20.24777        -50.07042       -53.08269             -200               0             -200               0
1.55446               -0.2303139       -20.43826         -49.8006       -56.15476             -200               0             -200               0
1.56106               -0.2361918       -20.63155        -49.52915       -59.27737             -200               0             -200               0
1.56766               -0.2422202       -20.82775        -49.25688       -62.44978             -200               0             -200               0
1.57426               -0.2484089       -21.02696        -48.98457       -65.67062             -200               0             -200               0
1.58086               -0.2547674       -21.22931        -48.71292       -68.93803             -200               0             -200               0
1.58746               -0.2613098       -21.43489        -48.44255       -72.24974             -200               0             -200               0
1.59406               -0.2680495       -21.64381        -48.17402       -75.60312             -200               0             -200               0
1.60066               -0.2750024       -21.85619        -47.90782       -78.99531             -200               0             -200               0
1.60726                -0.282184       -22.07213        -47.64434       -82.42324             -200               0             -200               0
1.61386               -0.2896149       -22.29172        -47.38392       -85.88372             -200               0             -200               0
1.62046               -0.2973118       -22.51507        -47.12684       -89.37348             -200               0             -200               0
1.62706               -0.3052974       -22.74225        -46.87329       -92.88922             -200               0             -200               0
1.63366               -0.3135924       -22.97336        -46.62341       -96.42768             -200               0             -200               0
1.64026                -0.322219       -23.20846        -46.37729       -99.98562             -200               0             -200               0
1.64686               -0.3312005       -23.44763        -46.13495       -103.5599             -200               0             -200               0
1.65347               -0.3405603       -23.69093        -45.89637       -107.1474             -200               0             -200               0
1.66007                -0.350323       -23.93841        -45.66147       -110.7453             -200               0             -200               0
1.66667               -0.3605109       -24.19011        -45.43014       -114.3509             -200               0             -200               0
1.67327               -0.3711509       -24.44608        -45.20222       -117.9614             -200               0             -200               0
1.67987               -0.3822636       -24.70634        -44.97751       -121.5745             -200               0             -200               0
1.68647               -0.3938758       -24.97092        -44.75578       -125.1881             -200               0             -200               0
1.69307               -0.4060075       -25.23986        -44.53677          -128.8             -200               0             -200               0
1.69967               -0.4186835       -25.51316        -44.32018       -132.4087             -200               0             -200               0
1.70627               -0.4319253       -25.79086        -44.10571       -136.0125             -200               0             -200               0
1.71287               -0.4457542       -26.07295        -43.89301       -139.6104             -200               0             -200               0
1.71947               -0.4601907       -26.35947        -43.68172       -143.2012             -200               0             -200               0
1.72607                -0.475255       -26.65042         -43.4715       -146.7844             -200               0             -200               0
1.73267               -0.4909672       -26.94585        -43.26195       -150.3595             -200               0             -200               0
1.73927               -0.5073463       -27.24577         -43.0527       -153.9266             -200               0             -200               0
1.74587               -0.5244107       -27.55023        -42.84338       -157.4857             -200               0             -200               0
1.75248               -0.5421798       -27.85927         -42.6336       -161.0375             -200               0             -200               0
1.75908               -0.5606719       -28.17294        -42.42301       -164.5828             -200               0             -200               0
1.76568               -0.5799073       -28.49131        -42.21128       -168.1226             -200               0             -200               0
1.77228               -0.5999042       -28.81445        -41.99806       -171.6583             -200               0             -200               0
1.77888               -0.6206841       -29.14245        -41.78307       -175.1916             -200               0             -200               0
1.78548               -0.6422684       -29.47542        -41.56604       -178.7243             -200               0             -200               0
1.79208               -0.6646814       -29.81345        -41.34674        177.7415             -200               0             -200               0
1.79868               -0.6879485       -30.15669        -41.12498        174.2035             -200               0             -200               0
1.80528               -0.7120967       -30.50527        -40.90061        170.6594             -200               0             -200               0
1.81188                -0.737157       -30.85934        -40.67352        167.1066             -200               0             -200               0
1.81848               -0.7631618       -31.21905        -40.44364        163.5426             -200               0             -200               0
1.82508               -0.7901485       -31.58457        -40.21098        159.9649             -200               0             -200               0
1.83168               -0.8181576       -31.95609        -39.97554        156.3708             -200               0             -200               0
1.83828               -0.8472319       -32.33378        -39.73741        152.7577             -200               0             -200               0
1.84488                -0.877422       -32.71784         -39.4967        149.1233             -200               0             -200               0
1.85149               -0.9087797       -33.10845        -39.25357        145.4651             -200               0             -200               0
1.85809               -0.9413639        -33.5058        -39.00821        141.7811             -200               0             -200               0
1.86469                -0.975236       -33.91007        -38.76083        138.0691             -200               0             -200               0
1.87129                -1.010465       -34.32146        -38.51169        134.3274             -200               0             -200               0
1.87789                -1.047125       -34.74012        -38.26107        130.5542             -200               0             -200               0
1.88449                -1.085293       -35.16622        -38.00926        126.7482             -200               0             -200               0
1.89109                -1.125055        -35.5999        -37.75656        122.9081             -200               0             -200               0
1.89769                  -1.1665       -36.04131        -37.50329        119.0329             -200               0             -200               0
1.90429                -1.209721       -36.49054        -37.24978        115.1219             -200               0             -200               0
1.91089                -1.254821       -36.94767        -36.99636        111.1744             -200               0             -200               0
1.91749                -1.301904       -37.41279        -36.74334        107.1902             -200               0             -200               0
1.92409                -1.351082       -37.88591        -36.49106         103.169             -200               0             -200               0
1.93069                -1.402471       -38.36704        -36.23982        99.11083             -200               0             -200               0
1.93729                 -1.45619       -38.85616        -35.98993        95.01582             -200               0             -200               0
1.94389                -1.512368       -39.35319        -35.74169        90.88429             -200               0             -200               0
1.9505                 -1.571132       -39.85805        -35.49537        86.71668             -200               0             -200               0
1.9571                  -1.63262       -40.37058        -35.25126        82.51355             -200               0             -200               0
1.9637                 -1.696971       -40.89061         -35.0096        78.27556             -200               0             -200               0
1.9703                 -1.764327       -41.41791        -34.77063        74.00348             -200               0             -200               0
1.9769                 -1.834836       -41.95222        -34.53458        69.69813             -200               0             -200               0
1.9835                 -1.908652       -42.49321        -34.30166        65.36042             -200               0             -200               0
1.9901                 -1.985929       -43.04053        -34.07207        60.99129             -200               0             -200               0
1.9967                 -2.066827       -43.59376        -33.84598        56.59175             -200               0             -200               0
2.0033                  -2.15151       -44.15245        -33.62357        52.16283             -200               0             -200               0
2.0099                 -2.240146       -44.71607        -33.40498        47.70558             -200               0             -200               0
2.0165                 -2.332906       -45.28405        -33.19036        43.22108             -200               0             -200               0
2.0231                 -2.429964       -45.85575        -32.97984        38.71042             -200               0             -200               0
2.0297                 -2.531502       -46.43049        -32.77352         34.1747             -200               0             -200               0
2.0363                 -2.637702       -47.00751        -32.57152          29.615             -200               0             -200               0
2.0429                 -2.748751       -47.58599        -32.37393        25.03242             -200               0             -200               0
2.0495                 -2.864844       -48.16504        -32.18083        20.42805             -200               0             -200               0
2.05611                -2.986177       -48.74368         -31.9923        15.80295             -200               0             -200               0
2.06271                -3.112952       -49.32088         -31.8084         11.1582             -200               0             -200               0
2.06931                -3.245378       -49.89551        -31.62919        6.494837             -200               0             -200               0
2.07591                -3.383668       -50.46635        -31.45472        1.813895             -200               0             -200               0
2.08251                -3.528041       -51.03206        -31.28504       -2.883609             -200               0             -200               0
2.08911                -3.678723       -51.59123        -31.12019       -7.596677             -200               0             -200               0
2.09571                -3.835947        -52.1423        -30.96019       -12.32433             -200               0             -200               0
2.10231                -3.999952       -52.68361        -30.80508       -17.06561             -200               0             -200               0
2.10891                -4.170985       -53.21333        -30.65486       -21.81957             -200               0             -200               0
2.11551                  -4.3493       -53.72951        -30.50957        -26.5853             -200               0             -200               0
2.12211                -4.535161       -54.22998        -30.36921       -31.36189             -200               0             -200               0
2.12871                -4.728837       -54.71242         -30.2338       -36.14844             -200               0             -200               0
2.13531                -4.930609       -55.17427        -30.10333        -40.9441             -200               0             -200               0
2.14191                -5.140761       -55.61274        -29.97782       -45.74801             -200               0             -200               0
2.14851                -5.359591       -56.02478        -29.85725       -50.55933             -200               0             -200               0
2.15512                -5.587397       -56.40703        -29.74163       -55.37726             -200               0             -200               0
2.16172                -5.824488       -56.75577        -29.63094       -60.20098             -200               0             -200               0
2.16832                -6.071177       -57.06695        -29.52519        -65.0297             -200               0             -200               0
2.17492                -6.327777       -57.33601        -29.42435       -69.86266             -200               0             -200               0
2.18152                  -6.5946       -57.55797        -29.32842       -74.69908             -200               0             -200               0
2.18812                -6.871957       -57.72726        -29.23738       -79.53822             -200               0             -200               0
2.19472                -7.160139       -57.83767        -29.15121       -84.37934             -200               0             -200               0
2.20132                -7.459426       -57.88229        -29.06989        -89.2217             -200               0             -200               0
2.20792                -7.770064        -57.8534         -28.9934        -94.0646             -200               0             -200               0
2.21452                -8.092253       -57.74234        -28.92172       -98.90732             -200               0             -200               0
2.22112                -8.426133       -57.53944        -28.85482       -103.7492             -200               0             -200               0
2.22772                -8.771753       -57.23389        -28.79267       -108.5894             -200               0             -200               0
2.23432                -9.129044       -56.81353        -28.73526       -113.4274             -200               0             -200               0
2.24092                -9.497773       -56.26485        -28.68254       -118.2625             -200               0             -200               0
2.24752                -9.877493       -55.57277        -28.63448        -123.094             -200               0             -200               0
2.25413                -10.26747       -54.72065        -28.59106       -127.9211             -200               0             -200               0
2.26073                -10.66662       -53.69021        -28.55223       -132.7434             -200               0             -200               0
2.26733                -11.07335       -52.46165        -28.51796         -137.56             -200               0             -200               0
2.27393                -11.48551       -51.01394        -28.48821       -142.3704             -200               0             -200               0
2.28053                -11.90018       -49.32533        -28.46293       -147.1739             -200               0             -200               0
2.28713                -12.31355       -47.37421        -28.44209       -151.9699             -200               0             -200               0
2.29373                -12.72078       -45.14056        -28.42563       -156.7577             -200               0             -200               0