! TOUCHSTONE file generated by CST MICROWAVE STUDIO
! Date and time: Tue Mar 18 00:00:52 2025
! Project name: oblique.cst
! Parameters = {Tilt=30; Fracture=1; B=10; D=160; F=15; Feed=2.85625; L=100; M=10; R=0.384908; S=1; Theta=90; length=57.125; wave=114.25}
! Header version: 2024
! Port assignment regex: !\s*Touchstone port\s*([0-9]+)\s*=\s*(CST MWS port|CST DES external port|CST DES block port)\s*(.+)\s* \(\"(.*)\"\)(\s*mode\s*([0-9]+))?.*
! Touchstone port assignment:
! Touchstone port 1 = CST MWS port 1 ("")
! Touchstone port 2 = CST MWS port 2 ("")
# GHz S DB R 50
1                     -0.0185108       -9.797002        -69.33302       -141.1524             -200               0             -200               0
1.00662              -0.01936445       -9.886505        -69.09754       -145.5648             -200               0             -200               0
1.01325              -0.02026762       -9.976321        -68.89576       -149.9199             -200               0             -200               0
1.01987              -0.02121291       -10.06642        -68.72676       -154.2037             -200               0             -200               0
1.02649              -0.02219209        -10.1568        -68.58968       -158.4012             -200               0             -200               0
1.03311              -0.02319623       -10.24745        -68.48374       -162.4965             -200               0             -200               0
1.03974              -0.02421693       -10.33838        -68.40814       -166.4719             -200               0             -200               0
1.04636              -0.02524469        -10.4296        -68.36202       -170.3083             -200               0             -200               0
1.05298              -0.02627152       -10.52115        -68.34433       -173.9842             -200               0             -200               0
1.0596               -0.02728926       -10.61306        -68.35377       -177.4757             -200               0             -200               0
1.06623              -0.02829042       -10.70539        -68.38862        179.2437             -200               0             -200               0
1.07285              -0.02926926       -10.79819        -68.44657        176.2033             -200               0             -200               0
1.07947              -0.03022146       -10.89153        -68.52447        173.4351             -200               0             -200               0
1.08609               -0.0311429       -10.98548        -68.61808        170.9728             -200               0             -200               0
1.09272              -0.03203245       -11.08011        -68.72175        168.8508             -200               0             -200               0
1.09934               -0.0328899       -11.17551        -68.82807        167.1018             -200               0             -200               0
1.10596              -0.03371756       -11.27175        -68.92763        165.7529             -200               0             -200               0
1.11258              -0.03451886        -11.3689        -69.00887        164.8205             -200               0             -200               0
1.11921              -0.03529984       -11.46704        -69.05831        164.3038             -200               0             -200               0
1.12583              -0.03606499       -11.56624        -69.06127        164.1773             -200               0             -200               0
1.13245              -0.03682496       -11.66656        -69.00318        164.3856             -200               0             -200               0
1.13907               -0.0375878       -11.76805        -68.87148        164.8417             -200               0             -200               0
1.1457               -0.03836503       -11.87076        -68.65764        165.4317             -200               0             -200               0
1.15232              -0.03916796       -11.97471        -68.35876         166.027             -200               0             -200               0
1.15894              -0.04000617       -12.07992        -67.97812        166.4998             -200               0             -200               0
1.16556              -0.04089226       -12.18641        -67.52444        166.7394             -200               0             -200               0
1.17219               -0.0418391       -12.29417        -67.01024        166.6627             -200               0             -200               0
1.17881              -0.04285586       -12.40319        -66.44975        166.2187             -200               0             -200               0
1.18543              -0.04395365       -12.51344        -65.85708        165.3855             -200               0             -200               0
1.19205              -0.04514218        -12.6249        -65.24501         164.165             -200               0             -200               0
1.19868              -0.04642751       -12.73751        -64.62431        162.5755             -200               0             -200               0
1.2053               -0.04781795       -12.85123         -64.0036        160.6452             -200               0             -200               0
1.21192              -0.04931669         -12.966        -63.38948         158.407             -200               0             -200               0
1.21854              -0.05092878       -13.08177        -62.78681        155.8955             -200               0             -200               0
1.22517              -0.05265301       -13.19848        -62.19904        153.1441             -200               0             -200               0
1.23179              -0.05448976       -13.31608         -61.6285        150.1843             -200               0             -200               0
1.23841              -0.05643612       -13.43451        -61.07671        147.0449             -200               0             -200               0
1.24503              -0.05848846       -13.55372        -60.54452        143.7516             -200               0             -200               0
1.25166              -0.06064092       -13.67367        -60.03235        140.3277             -200               0             -200               0
1.25828              -0.06288568       -13.79433        -59.54025        136.7935             -200               0             -200               0
1.2649               -0.06521604       -13.91569        -59.06806        133.1674             -200               0             -200               0
1.27152              -0.06762187       -14.03772        -58.61543        129.4655             -200               0             -200               0
1.27815              -0.07009343       -14.16044        -58.18189        125.7021             -200               0             -200               0
1.28477              -0.07262059       -14.28386        -57.76688        121.8901             -200               0             -200               0
1.29139              -0.07519512       -14.40801        -57.36979        118.0409             -200               0             -200               0
1.29801              -0.07780581       -14.53293        -56.98997         114.165             -200               0             -200               0
1.30464              -0.08044494       -14.65867        -56.62672        110.2717             -200               0             -200               0
1.31126              -0.08310546       -14.78531        -56.27934        106.3695             -200               0             -200               0
1.31788              -0.08578065       -14.91292        -55.94708        102.4663             -200               0             -200               0
1.3245               -0.08846638       -15.04159         -55.6292        98.56919             -200               0             -200               0
1.33113              -0.09115981       -15.17141        -55.32492        94.68489             -200               0             -200               0
1.33775              -0.09385989       -15.30248        -55.03345        90.81944             -200               0             -200               0
1.34437              -0.09656808       -15.43489        -54.75397        86.97848             -200               0             -200               0
1.35099               -0.0992886       -15.56876        -54.48564        83.16719             -200               0             -200               0
1.35762               -0.1020258       -15.70417        -54.22758        79.39033             -200               0             -200               0
1.36424               -0.1047882       -15.84123         -53.9789        75.65221             -200               0             -200               0
1.37086               -0.1075845       -15.98002        -53.73866        71.95667             -200               0             -200               0
1.37748                -0.110426       -16.12063        -53.50587        68.30711             -200               0             -200               0
1.38411               -0.1133246       -16.26312        -53.27955        64.70641             -200               0             -200               0
1.39073               -0.1162956       -16.40756        -53.05864        61.15689             -200               0             -200               0
1.39735               -0.1193516       -16.55399        -52.84208        57.66026             -200               0             -200               0
1.40397               -0.1225083       -16.70244        -52.62878        54.21761             -200               0             -200               0
1.4106                -0.1257811       -16.85294        -52.41761         50.8293             -200               0             -200               0
1.41722               -0.1291842        -17.0055        -52.20747        47.49495             -200               0             -200               0
1.42384               -0.1327316        -17.1601        -51.99723        44.21336             -200               0             -200               0
1.43046               -0.1364377       -17.31673        -51.78582        40.98253             -200               0             -200               0
1.43709                -0.140314       -17.47537        -51.57215         37.7996             -200               0             -200               0
1.44371               -0.1443697       -17.63597        -51.35525        34.66089             -200               0             -200               0
1.45033               -0.1486151        -17.7985        -51.13418        31.56191             -200               0             -200               0
1.45695               -0.1530557       -17.96289        -50.90812         28.4974             -200               0             -200               0
1.46358               -0.1576952       -18.12911        -50.67634        25.46148             -200               0             -200               0
1.4702                 -0.162538        -18.2971        -50.43826         22.4477             -200               0             -200               0
1.47682               -0.1675823       -18.46682        -50.19343        19.44917             -200               0             -200               0
1.48344                -0.172826       -18.63823        -49.94157        16.45877             -200               0             -200               0
1.49007               -0.1782658       -18.81128        -49.68254        13.46928             -200               0             -200               0
1.49669               -0.1838956       -18.98597        -49.41635        10.47354             -200               0             -200               0
1.50331                -0.189708       -19.16229        -49.14318        7.464629             -200               0             -200               0
1.50993               -0.1956942       -19.34023        -48.86333        4.436006             -200               0             -200               0
1.51656               -0.2018449       -19.51983        -48.57725         1.38165             -200               0             -200               0
1.52318                -0.208151       -19.70113        -48.28546       -1.703835             -200               0             -200               0
1.5298                -0.2146015       -19.88417         -47.9886       -4.825144             -200               0             -200               0
1.53642               -0.2211883       -20.06907        -47.68736       -7.986217             -200               0             -200               0
1.54305               -0.2279024       -20.25589        -47.38248       -11.19022             -200               0             -200               0
1.54967               -0.2347386       -20.44477        -47.07474       -14.43954             -200               0             -200               0
1.55629                 -0.24169       -20.63583        -46.76491       -17.73582             -200               0             -200               0
1.56291               -0.2487552       -20.82923        -46.45376       -21.07998             -200               0             -200               0
1.56954                -0.255934       -21.02512        -46.14203        -24.4723             -200               0             -200               0
1.57616               -0.2632298       -21.22368        -45.83045       -27.91245             -200               0             -200               0
1.58278               -0.2706479       -21.42508        -45.51968       -31.39958             -200               0             -200               0
1.5894                -0.2781984       -21.62951        -45.21035       -34.93241             -200               0             -200               0
1.59603               -0.2858941       -21.83715        -44.90304       -38.50922             -200               0             -200               0
1.60265               -0.2937522       -22.04818        -44.59825         -42.128             -200               0             -200               0
1.60927               -0.3017932       -22.26278        -44.29646       -45.78649             -200               0             -200               0
1.61589               -0.3100382       -22.48111        -43.99806       -49.48221             -200               0             -200               0
1.62252                -0.318516       -22.70334        -43.70341       -53.21251             -200               0             -200               0
1.62914               -0.3272537        -22.9296        -43.41279       -56.97466             -200               0             -200               0
1.63576               -0.3362847       -23.16002        -43.12645       -60.76585             -200               0             -200               0
1.64238               -0.3456394        -23.3947        -42.84457       -64.58321             -200               0             -200               0
1.64901               -0.3553563       -23.63373         -42.5673       -68.42389             -200               0             -200               0
1.65563                -0.365468       -23.87717        -42.29474       -72.28505             -200               0             -200               0
1.66225               -0.3760135       -24.12505        -42.02693        -76.1639             -200               0             -200               0
1.66887               -0.3870262       -24.37741        -41.76389       -80.05769             -200               0             -200               0
1.6755                -0.3985427       -24.63424         -41.5056       -83.96375             -200               0             -200               0
1.68212               -0.4105984       -24.89551        -41.25199       -87.87953             -200               0             -200               0
1.68874               -0.4232246        -25.1612        -41.00297       -91.80254             -200               0             -200               0
1.69536                -0.436452       -25.43125        -40.75841       -95.73044             -200               0             -200               0
1.70199               -0.4503097       -25.70559        -40.51816       -99.66101             -200               0             -200               0
1.70861               -0.4648226       -25.98416        -40.28203       -103.5922             -200               0             -200               0
1.71523               -0.4800136       -26.26687        -40.04981        -107.522             -200               0             -200               0
1.72185               -0.4959033       -26.55364        -39.82127       -111.4487             -200               0             -200               0
1.72848               -0.5125067        -26.8444        -39.59615       -115.3706             -200               0             -200               0
1.7351                -0.5298393       -27.13908        -39.37417       -119.2864             -200               0             -200               0
1.74172               -0.5479127       -27.43761        -39.15505       -123.1949             -200               0             -200               0
1.74834               -0.5667342       -27.73996        -38.93848        -127.095             -200               0             -200               0
1.75497               -0.5863119        -28.0461        -38.72413       -130.9858             -200               0             -200               0
1.76159                -0.606651       -28.35602        -38.51167       -134.8668             -200               0             -200               0
1.76821               -0.6277562       -28.66974        -38.30076       -138.7377             -200               0             -200               0
1.77483               -0.6496299       -28.98732        -38.09106       -142.5982             -200               0             -200               0
1.78146               -0.6722775       -29.30882        -37.88223       -146.4485             -200               0             -200               0
1.78808               -0.6957047       -29.63434        -37.67392       -150.2888             -200               0             -200               0
1.7947                -0.7199177       -29.96402        -37.46581       -154.1199             -200               0             -200               0
1.80132               -0.7449271       -30.29803        -37.25756       -157.9424             -200               0             -200               0
1.80795               -0.7707452       -30.63655        -37.04887       -161.7575             -200               0             -200               0
1.81457               -0.7973897        -30.9798        -36.83944       -165.5663             -200               0             -200               0
1.82119               -0.8248815       -31.32801        -36.62901       -169.3703             -200               0             -200               0
1.82781               -0.8532504       -31.68145        -36.41732       -173.1712             -200               0             -200               0
1.83444               -0.8825282       -32.04039        -36.20417       -176.9708             -200               0             -200               0
1.84106               -0.9127557       -32.40511        -35.98937        179.2289             -200               0             -200               0
1.84768               -0.9439809       -32.77592        -35.77277        175.4258             -200               0             -200               0
1.8543                -0.9762585       -33.15309        -35.55424        171.6177             -200               0             -200               0
1.86093                -1.009649       -33.53692        -35.33372        167.8024             -200               0             -200               0
1.86755                -1.044225       -33.92769        -35.11117        163.9776             -200               0             -200               0
1.87417                -1.080063       -34.32566        -34.88658        160.1409             -200               0             -200               0
1.88079                -1.117249       -34.73106        -34.65998          156.29             -200               0             -200               0
1.88742                -1.155875       -35.14412        -34.43146        152.4228             -200               0             -200               0
1.89404                -1.196039         -35.565        -34.20111         148.537             -200               0             -200               0
1.90066                -1.237849       -35.99386        -33.96908        144.6307             -200               0             -200               0
1.90728                -1.281416       -36.43078        -33.73554        140.7018             -200               0             -200               0
1.91391                -1.326858       -36.87584        -33.50067        136.7486             -200               0             -200               0
1.92053                -1.374297       -37.32903        -33.26471        132.7695             -200               0             -200               0
1.92715                -1.423857        -37.7903        -33.02787        128.7629             -200               0             -200               0
1.93377                -1.475671       -38.25956        -32.79043        124.7277             -200               0             -200               0
1.9404                 -1.529868       -38.73666        -32.55265        120.6626             -200               0             -200               0
1.94702                -1.586584        -39.2214         -32.3148        116.5668             -200               0             -200               0
1.95364                -1.645955        -39.7135        -32.07716        112.4395             -200               0             -200               0
1.96026                -1.708115       -40.21266        -31.84003        108.2802             -200               0             -200               0
1.96689                -1.773202       -40.71852        -31.60369        104.0884             -200               0             -200               0
1.97351                 -1.84135       -41.23064        -31.36841        99.86386             -200               0             -200               0
1.98013                -1.912697       -41.74858        -31.13449        95.60661             -200               0             -200               0
1.98675                -1.987375       -42.27182        -30.90219        91.31663             -200               0             -200               0
1.99338                -2.065518       -42.79982        -30.67177        86.99414             -200               0             -200               0
2                      -2.147256       -43.33197         -30.4435        82.63944             -200               0             -200               0
2.00662                -2.232719       -43.86765        -30.21762        78.25294             -200               0             -200               0
2.01325                -2.322036       -44.40619        -29.99435        73.83516             -200               0             -200               0
2.01987                -2.415335       -44.94692        -29.77393         69.3867             -200               0             -200               0
2.02649                -2.512742        -45.4891        -29.55657        64.90823             -200               0             -200               0
2.03311                -2.614384       -46.03198        -29.34245        60.40049             -200               0             -200               0
2.03974                -2.720385        -46.5748        -29.13178        55.86428             -200               0             -200               0
2.04636                -2.830875       -47.11675        -28.92471        51.30043             -200               0             -200               0
2.05298                -2.945982       -47.65702        -28.72142        46.70982             -200               0             -200               0
2.0596                 -3.065837       -48.19476        -28.52205        42.09335             -200               0             -200               0
2.06623                -3.190575        -48.7291        -28.32675        37.45196             -200               0             -200               0
2.07285                -3.320335       -49.25915        -28.13564         32.7866             -200               0             -200               0
2.07947                -3.455263       -49.78398        -27.94884        28.09823             -200               0             -200               0
2.08609                -3.595511       -50.30262        -27.76646        23.38783             -200               0             -200               0
2.09272                -3.741239       -50.81406        -27.58859        18.65635             -200               0             -200               0
2.09934                -3.892615       -51.31725        -27.41534        13.90479             -200               0             -200               0
2.10596                 -4.04982       -51.81106        -27.24678         9.13411             -200               0             -200               0
2.11258                -4.213045       -52.29432        -27.08299        4.345281             -200               0             -200               0
2.11921                -4.382498       -52.76571        -26.92404      -0.4607299             -200               0             -200               0
2.12583                -4.558397       -53.22389        -26.76998       -5.282973             -200               0             -200               0
2.13245                -4.740977       -53.66732        -26.62088        -10.1205             -200               0             -200               0
2.13907                -4.930494       -54.09439        -26.47678       -14.97238             -200               0             -200               0
2.1457                 -5.127219       -54.50326        -26.33772       -19.83768             -200               0             -200               0
2.15232                -5.331441       -54.89193        -26.20375        -24.7155             -200               0             -200               0
2.15894                -5.543473       -55.25817        -26.07491       -29.60493             -200               0             -200               0
2.16556                -5.763645       -55.59945        -25.95121       -34.50509             -200               0             -200               0
2.17219                 -5.99231       -55.91299        -25.83269       -39.41509             -200               0             -200               0
2.17881                -6.229841       -56.19559        -25.71938       -44.33407             -200               0             -200               0
2.18543                -6.476631       -56.44369        -25.61128       -49.26118             -200               0             -200               0
2.19205                -6.733094       -56.65324        -25.50843       -54.19556             -200               0             -200               0
2.19868                -6.999659       -56.81963        -25.41082       -59.13639             -200               0             -200               0
2.2053                 -7.276768       -56.93763        -25.31848       -64.08284             -200               0             -200               0
2.21192                -7.564871        -57.0013        -25.23141       -69.03409             -200               0             -200               0
2.21854                -7.864422       -57.00381        -25.14961       -73.98934             -200               0             -200               0
2.22517                -8.175863       -56.93744         -25.0731       -78.94776             -200               0             -200               0
2.23179                -8.499616        -56.7933        -25.00187       -83.90858             -200               0             -200               0
2.23841                -8.836062       -56.56127        -24.93592         -88.871             -200               0             -200               0
2.24503                -9.185515       -56.22976        -24.87526       -93.83424             -200               0             -200               0
2.25166                -9.548188       -55.78552        -24.81987        -98.7975             -200               0             -200               0
2.25828                -9.924148       -55.21344        -24.76976         -103.76             -200               0             -200               0
2.2649                 -10.31325        -54.4963        -24.72491        -108.721             -200               0             -200               0
2.27152                -10.71508       -53.61463        -24.68531       -113.6796             -200               0             -200               0
2.27815                -11.12879       -52.54647        -24.65096       -118.6352             -200               0             -200               0
2.28477                -11.55303       -51.26739        -24.62183       -123.5869             -200               0             -200               0
2.29139                -11.98574        -49.7506        -24.59792        -128.534             -200               0             -200               0
2.29801                -12.42392        -47.9674        -24.57921       -133.4756             -200               0             -200               0