! TOUCHSTONE file generated by CST MICROWAVE STUDIO
! Date and time: Tue Mar 18 00:01:26 2025
! Project name: oblique.cst
! Parameters = {Tilt=30; Fracture=1; B=12.5; D=160; F=5; Feed=2.85625; L=100; M=50; R=0.384908; S=1; Theta=270; length=57.125; wave=114.25}
! Header version: 2024
! Port assignment regex: !\s*Touchstone port\s*([0-9]+)\s*=\s*(CST MWS port|CST DES external port|CST DES block port)\s*(.+)\s* \(\"(.*)\"\)(\s*mode\s*([0-9]+))?.*
! Touchstone port assignment:
! Touchstone port 1 = CST MWS port 1 ("")
! Touchstone port 2 = CST MWS port 2 ("")
# GHz S DB R 50
1                    -0.02211619       -9.802787        -66.52355        165.3548             -200               0             -200               0
1.0066                -0.0227781       -9.889795        -66.51844         159.594             -200               0             -200               0
1.0132               -0.02343466       -9.977494        -66.54549         153.929             -200               0             -200               0
1.0198               -0.02408862       -10.06592        -66.60553        148.3673             -200               0             -200               0
1.0264               -0.02474428       -10.15511        -66.69959        142.9185             -200               0             -200               0
1.033                -0.02540931       -10.24509        -66.82892        137.5949             -200               0             -200               0
1.0396               -0.02608765       -10.33589        -66.99496        132.4118             -200               0             -200               0
1.0462               -0.02678563       -10.42753        -67.19937        127.3884             -200               0             -200               0
1.05281              -0.02751025       -10.52002        -67.44402        122.5488             -200               0             -200               0
1.05941              -0.02826756       -10.61337        -67.73091        117.9234             -200               0             -200               0
1.06601              -0.02906391       -10.70758        -68.06213        113.5508             -200               0             -200               0
1.07261              -0.02990786       -10.80265        -68.43966          109.48             -200               0             -200               0
1.07921               -0.0308029       -10.89855        -68.86509        105.7737             -200               0             -200               0
1.08581               -0.0317543       -10.99528        -69.33902        102.5119             -200               0             -200               0
1.09241              -0.03276809        -11.0928        -69.86014        99.79661             -200               0             -200               0
1.09901              -0.03384873        -11.1911        -70.42358        97.75612             -200               0             -200               0
1.10561              -0.03499668       -11.29014        -71.01822        96.54635             -200               0             -200               0
1.11221              -0.03621456        -11.3899         -71.6227        96.34438             -200               0             -200               0
1.11881              -0.03750401       -11.49033        -72.20022        97.32252             -200               0             -200               0
1.12541              -0.03886408        -11.5914        -72.69432        99.58818             -200               0             -200               0
1.13201              -0.04029424       -11.69309        -73.03084        103.0834             -200               0             -200               0
1.13861              -0.04179189       -11.79537        -73.13391        107.4821             -200               0             -200               0
1.14521              -0.04335225       -11.89821        -72.95585         112.186             -200               0             -200               0
1.15182              -0.04497449       -12.00159        -72.50224        116.4947             -200               0             -200               0
1.15842              -0.04665085       -12.10549        -71.82866        119.8556             -200               0             -200               0
1.16502              -0.04837708       -12.20991        -71.01256        122.0008             -200               0             -200               0
1.17162              -0.05014804       -12.31485        -70.12518        122.9142             -200               0             -200               0
1.17822              -0.05195524       -12.42031        -69.21881        122.7235             -200               0             -200               0
1.18482              -0.05379587        -12.5263        -68.32662         121.606             -200               0             -200               0
1.19142              -0.05566175       -12.63285         -67.4674        119.7365             -200               0             -200               0
1.19802               -0.0575469       -12.73999        -66.65058        117.2668             -200               0             -200               0
1.20462              -0.05944682       -12.84774        -65.87997        114.3207             -200               0             -200               0
1.21122              -0.06135541       -12.95616         -65.1562        110.9969             -200               0             -200               0
1.21782              -0.06327044       -13.06529        -64.47817        107.3731             -200               0             -200               0
1.22442              -0.06518787       -13.17518        -63.84397        103.5106             -200               0             -200               0
1.23102              -0.06710601        -13.2859        -63.25131        99.45799             -200               0             -200               0
1.23762              -0.06902267        -13.3975        -62.69784        95.25417             -200               0             -200               0
1.24422              -0.07094069       -13.51005        -62.18127        90.93048             -200               0             -200               0
1.25083              -0.07285869        -13.6236        -61.69946        86.51257             -200               0             -200               0
1.25743              -0.07477927       -13.73822        -61.25042         82.0217             -200               0             -200               0
1.26403              -0.07670752       -13.85397        -60.83236        77.47574             -200               0             -200               0
1.27063              -0.07864893       -13.97091        -60.44363        72.88993             -200               0             -200               0
1.27723              -0.08060636       -14.08908        -60.08276        68.27749             -200               0             -200               0
1.28383              -0.08258764       -14.20854        -59.74841        63.65006             -200               0             -200               0
1.29043              -0.08459983       -14.32934        -59.43937        59.01811             -200               0             -200               0
1.29703              -0.08665012       -14.45149        -59.15453        54.39116             -200               0             -200               0
1.30363              -0.08874648       -14.57505         -58.8929        49.77811             -200               0             -200               0
1.31023              -0.09089705       -14.70002        -58.65352        45.18734             -200               0             -200               0
1.31683              -0.09310877       -14.82642        -58.43553        40.62693             -200               0             -200               0
1.32343              -0.09539095       -14.95427         -58.2381        36.10476             -200               0             -200               0
1.33003              -0.09775148       -15.08355        -58.06042        31.62864             -200               0             -200               0
1.33663               -0.1001942       -15.21429         -57.9017        27.20639             -200               0             -200               0
1.34323                -0.102728       -15.34645        -57.76113        22.84594             -200               0             -200               0
1.34984               -0.1053562       -15.48003         -57.6379        18.55537             -200               0             -200               0
1.35644               -0.1080841       -15.61503         -57.5311        14.34293             -200               0             -200               0
1.36304               -0.1109141       -15.75141        -57.43981        10.21713             -200               0             -200               0
1.36964               -0.1138475       -15.88917        -57.36297        6.186668             -200               0             -200               0
1.37624               -0.1168878       -16.02829        -57.29941        2.260428             -200               0             -200               0
1.38284                -0.120033       -16.16876        -57.24779       -1.552596             -200               0             -200               0
1.38944               -0.1232818       -16.31057        -57.20661       -5.243423             -200               0             -200               0
1.39604               -0.1266339       -16.45371        -57.17413       -8.803265             -200               0             -200               0
1.40264               -0.1300858       -16.59819        -57.14837       -12.22379             -200               0             -200               0
1.40924               -0.1336339       -16.74402        -57.12707       -15.49743             -200               0             -200               0
1.41584               -0.1372739       -16.89122        -57.10769       -18.61783             -200               0             -200               0
1.42244               -0.1410031        -17.0398        -57.08737       -21.58036             -200               0             -200               0
1.42904               -0.1448168       -17.18981        -57.06298       -24.38267             -200               0             -200               0
1.43564               -0.1487096       -17.34129        -57.03114       -27.02538             -200               0             -200               0
1.44224               -0.1526816       -17.49428        -56.98833       -29.51265             -200               0             -200               0
1.44884               -0.1567263       -17.64886        -56.93092       -31.85281             -200               0             -200               0
1.45545               -0.1608422       -17.80509        -56.85538       -34.05871             -200               0             -200               0
1.46205               -0.1650297       -17.96304        -56.75845       -36.14788             -200               0             -200               0
1.46865               -0.1692869        -18.1228        -56.63728        -38.1423             -200               0             -200               0
1.47525                -0.173616       -18.28447        -56.48967       -40.06779             -200               0             -200               0
1.48185               -0.1780195       -18.44812        -56.31416       -41.95294             -200               0             -200               0
1.48845               -0.1825013       -18.61385         -56.1102       -43.82788             -200               0             -200               0
1.49505               -0.1870666       -18.78176        -55.87815       -45.72264             -200               0             -200               0
1.50165               -0.1917238       -18.95195        -55.61923       -47.66575             -200               0             -200               0
1.50825                -0.196481        -19.1245        -55.33543       -49.68283             -200               0             -200               0
1.51485               -0.2013478       -19.29952        -55.02936       -51.79562             -200               0             -200               0
1.52145               -0.2063368       -19.47708        -54.70405        -54.0214             -200               0             -200               0
1.52805               -0.2114602       -19.65727        -54.36276       -56.37275             -200               0             -200               0
1.53465               -0.2167314       -19.84016        -54.00884       -58.85773             -200               0             -200               0
1.54125               -0.2221659       -20.02581        -53.64553       -61.48026             -200               0             -200               0
1.54785               -0.2277784       -20.21429         -53.2759       -64.24072             -200               0             -200               0
1.55446               -0.2335838       -20.40564        -52.90277       -67.13656             -200               0             -200               0
1.56106               -0.2395989        -20.5999        -52.52863       -70.16299             -200               0             -200               0
1.56766                -0.245839       -20.79711        -52.15568        -73.3135             -200               0             -200               0
1.57426               -0.2523197       -20.99728         -51.7858       -76.58043             -200               0             -200               0
1.58086                -0.259056       -21.20043        -51.42058       -79.95539             -200               0             -200               0
1.58746               -0.2660618       -21.40659        -51.06132       -83.42957             -200               0             -200               0
1.59406               -0.2733504       -21.61573        -50.70908       -86.99403             -200               0             -200               0
1.60066               -0.2809346       -21.82788        -50.36472       -90.63986             -200               0             -200               0
1.60726               -0.2888248       -22.04302        -50.02888       -94.35837             -200               0             -200               0
1.61386               -0.2970305       -22.26116        -49.70205       -98.14111             -200               0             -200               0
1.62046               -0.3055613       -22.48228        -49.38459         -101.98             -200               0             -200               0
1.62706               -0.3144238        -22.7064        -49.07672       -105.8673             -200               0             -200               0
1.63366               -0.3236235       -22.93352        -48.77856       -109.7956             -200               0             -200               0
1.64026               -0.3331664       -23.16364        -48.49014        -113.758             -200               0             -200               0
1.64686               -0.3430551        -23.3968        -48.21141       -117.7479             -200               0             -200               0
1.65347               -0.3532942       -23.63303        -47.94227       -121.7589             -200               0             -200               0
1.66007               -0.3638858       -23.87236        -47.68253       -125.7852             -200               0             -200               0
1.66667               -0.3748314       -24.11485        -47.43195       -129.8212             -200               0             -200               0
1.67327               -0.3861341       -24.36056        -47.19026       -133.8615             -200               0             -200               0
1.67987               -0.3977949       -24.60959        -46.95713       -137.9011             -200               0             -200               0
1.68647               -0.4098189       -24.86202        -46.73218       -141.9354             -200               0             -200               0
1.69307               -0.4222092       -25.11798          -46.515       -145.9599             -200               0             -200               0
1.69967               -0.4349716       -25.37757        -46.30513       -149.9704             -200               0             -200               0
1.70627               -0.4481122       -25.64095        -46.10206       -153.9631             -200               0             -200               0
1.71287               -0.4616402       -25.90826        -45.90526       -157.9343             -200               0             -200               0
1.71947               -0.4755669       -26.17967        -45.71415       -161.8809             -200               0             -200               0
1.72607               -0.4899049       -26.45535        -45.52811       -165.7997             -200               0             -200               0
1.73267               -0.5046721       -26.73549        -45.34647       -169.6883             -200               0             -200               0
1.73927                -0.519887       -27.02027        -45.16856       -173.5444             -200               0             -200               0
1.74587               -0.5355713       -27.30988        -44.99362       -177.3663             -200               0             -200               0
1.75248               -0.5517514       -27.60453        -44.82092        178.8475             -200               0             -200               0
1.75908               -0.5684557       -27.90441        -44.64966        175.0978             -200               0             -200               0
1.76568               -0.5857155       -28.20972        -44.47903         171.385             -200               0             -200               0
1.77228               -0.6035666       -28.52065        -44.30823        167.7088             -200               0             -200               0
1.77888               -0.6220462       -28.83737        -44.13643        164.0685             -200               0             -200               0
1.78548               -0.6411976       -29.16008        -43.96282        160.4625             -200               0             -200               0
1.79208                -0.661064       -29.48895         -43.7866         156.889             -200               0             -200               0
1.79868               -0.6816921       -29.82411        -43.60701        153.3451             -200               0             -200               0
1.80528               -0.7031308       -30.16574        -43.42334        149.8277             -200               0             -200               0
1.81188               -0.7254316       -30.51395        -43.23493        146.3327             -200               0             -200               0
1.81848               -0.7486495       -30.86887        -43.04118        142.8559             -200               0             -200               0
1.82508               -0.7728389       -31.23061        -42.84161        139.3924             -200               0             -200               0
1.83168               -0.7980561       -31.59927        -42.63579        135.9368             -200               0             -200               0
1.83828               -0.8243597       -31.97493        -42.42344        132.4835             -200               0             -200               0
1.84488               -0.8518093       -32.35765        -42.20435        129.0269             -200               0             -200               0
1.85149               -0.8804649        -32.7475        -41.97846        125.5609             -200               0             -200               0
1.85809               -0.9103875       -33.14452        -41.74579        122.0798             -200               0             -200               0
1.86469               -0.9416392       -33.54877        -41.50649        118.5779             -200               0             -200               0
1.87129               -0.9742838       -33.96027         -41.2608        115.0496             -200               0             -200               0
1.87789                -1.008384       -34.37905        -41.00909        111.4899             -200               0             -200               0
1.88449                -1.044003       -34.80516        -40.75176        107.8941             -200               0             -200               0
1.89109                -1.081211        -35.2386        -40.48932        104.2579             -200               0             -200               0
1.89769                -1.120071       -35.67941        -40.22233        100.5776             -200               0             -200               0
1.90429                -1.160653       -36.12762        -39.95139           96.85             -200               0             -200               0
1.91089                -1.203029       -36.58325        -39.67712        93.07252             -200               0             -200               0
1.91749                -1.247271       -37.04635        -39.40019        89.24306             -200               0             -200               0
1.92409                -1.293455       -37.51693        -39.12124         85.3601             -200               0             -200               0
1.93069                -1.341662       -37.99506        -38.84093        81.42259             -200               0             -200               0
1.93729                -1.391972       -38.48078        -38.55989        77.42995             -200               0             -200               0
1.94389                -1.444477       -38.97414        -38.27875        73.38204             -200               0             -200               0
1.9505                 -1.499266       -39.47519        -37.99809        69.27908             -200               0             -200               0
1.9571                  -1.55644       -39.98399        -37.71847        65.12162             -200               0             -200               0
1.9637                 -1.616103        -40.5006        -37.44041        60.91052             -200               0             -200               0
1.9703                 -1.678366       -41.02505        -37.16442        56.64684             -200               0             -200               0
1.9769                 -1.743349       -41.55741        -36.89094        52.33189             -200               0             -200               0
1.9835                  -1.81118        -42.0977        -36.62039        47.96709             -200               0             -200               0
1.9901                 -1.881994       -42.64594        -36.35315        43.55403             -200               0             -200               0
1.9967                 -1.955937       -43.20213        -36.08956        39.09436             -200               0             -200               0
2.0033                 -2.033164       -43.76626        -35.82994        34.58984             -200               0             -200               0
2.0099                 -2.113841       -44.33826        -35.57457        30.04222             -200               0             -200               0
2.0165                 -2.198143       -44.91805         -35.3237        25.45333             -200               0             -200               0
2.0231                 -2.286259       -45.50549        -35.07754        20.82497             -200               0             -200               0
2.0297                 -2.378387       -46.10044         -34.8363        16.15895             -200               0             -200               0
2.0363                 -2.474739       -46.70261        -34.60014        11.45707             -200               0             -200               0
2.0429                 -2.575537       -47.31176        -34.36923        6.721084             -200               0             -200               0
2.0495                 -2.681017       -47.92748        -34.14368        1.952721             -200               0             -200               0
2.05611                -2.791428       -48.54936        -33.92361       -2.846327             -200               0             -200               0
2.06271                -2.907031       -49.17685        -33.70913       -7.674419             -200               0             -200               0
2.06931                -3.028102       -49.80935         -33.5003       -12.52995             -200               0             -200               0
2.07591                -3.154929       -50.44611         -33.2972       -17.41139             -200               0             -200               0
2.08251                -3.287816       -51.08631        -33.09989       -22.31721             -200               0             -200               0
2.08911                -3.427078       -51.72897        -32.90841       -27.24599             -200               0             -200               0
2.09571                -3.573051       -52.37299         -32.7228       -32.19631             -200               0             -200               0
2.10231                -3.726081       -53.01714        -32.54309       -37.16684             -200               0             -200               0
2.10891                -3.886529          -53.66        -32.36931       -42.15625             -200               0             -200               0
2.11551                -4.054778       -54.29998        -32.20146       -47.16331             -200               0             -200               0
2.12211                -4.231225       -54.93532        -32.03956       -52.18679             -200               0             -200               0
2.12871                -4.416284       -55.56402        -31.88361       -57.22553             -200               0             -200               0
2.13531                -4.610392       -56.18385        -31.73362        -62.2784             -200               0             -200               0
2.14191                -4.814004       -56.79234        -31.58958       -67.34431             -200               0             -200               0
2.14851                -5.027595       -57.38668        -31.45148       -72.42222             -200               0             -200               0
2.15512                -5.251666       -57.96379        -31.31932        -77.5111             -200               0             -200               0
2.16172                -5.486739       -58.52019        -31.19309       -82.60996             -200               0             -200               0
2.16832                -5.733362       -59.05199        -31.07277       -87.71787             -200               0             -200               0
2.17492                -5.992111       -59.55481        -30.95834       -92.83388             -200               0             -200               0
2.18152                -6.263589       -60.02374         -30.8498       -97.95711             -200               0             -200               0
2.18812                -6.548424       -60.45326        -30.74712       -103.0867             -200               0             -200               0
2.19472                -6.847276       -60.83707        -30.65029       -108.2217             -200               0             -200               0
2.20132                -7.160831       -61.16806        -30.55929       -113.3614             -200               0             -200               0
2.20792                -7.489797       -61.43813        -30.47409        -118.505             -200               0             -200               0
2.21452                -7.834904       -61.63797        -30.39467       -123.6516             -200               0             -200               0
2.22112                -8.196891       -61.75694        -30.32103       -128.8004             -200               0             -200               0
2.22772                -8.576496       -61.78275        -30.25312       -133.9508             -200               0             -200               0
2.23432                -8.974431       -61.70118        -30.19094       -139.1019             -200               0             -200               0
2.24092                -9.391357       -61.49572        -30.13445       -144.2531             -200               0             -200               0
2.24752                -9.827828       -61.14712        -30.08365       -149.4035             -200               0             -200               0
2.25413                -10.28423       -60.63295        -30.03849       -154.5524             -200               0             -200               0
2.26073                -10.76067       -59.92698        -29.99897       -159.6992             -200               0             -200               0
2.26733                -11.25686       -58.99871        -29.96506       -164.8431             -200               0             -200               0
2.27393                -11.77188       -57.81263        -29.93673       -169.9834             -200               0             -200               0
2.28053                 -12.3039       -56.32799        -29.91396       -175.1194             -200               0             -200               0
2.28713                -12.84981       -54.49861        -29.89672        179.7496             -200               0             -200               0
2.29373                 -13.4047        -52.2737          -29.885        174.6243             -200               0             -200               0