! TOUCHSTONE file generated by CST MICROWAVE STUDIO
! Date and time: Tue Mar 18 00:00:47 2025
! Project name: oblique.cst
! Parameters = {Tilt=30; Fracture=1; B=10; D=160; F=5; Feed=2.85625; L=100; M=10; R=0.384908; S=2; Theta=180; length=57.125; wave=114.25}
! Header version: 2024
! Port assignment regex: !\s*Touchstone port\s*([0-9]+)\s*=\s*(CST MWS port|CST DES external port|CST DES block port)\s*(.+)\s* \(\"(.*)\"\)(\s*mode\s*([0-9]+))?.*
! Touchstone port assignment:
! Touchstone port 1 = CST MWS port 1 ("")
! Touchstone port 2 = CST MWS port 2 ("")
# GHz S DB R 50
1                    -0.01891555        -9.78326        -71.00514       -124.6315             -200               0             -200               0
1.00658              -0.01962221       -9.871894        -70.40047       -128.8818             -200               0             -200               0
1.01316              -0.02037951       -9.960989        -69.85205       -133.2505             -200               0             -200               0
1.01974              -0.02118381       -10.05051        -69.35537       -137.7043             -200               0             -200               0
1.02632              -0.02203285       -10.14044        -68.90666       -142.2166             -200               0             -200               0
1.03289               -0.0229206       -10.23076        -68.50273       -146.7655             -200               0             -200               0
1.03947              -0.02384191       -10.32145        -68.14093       -151.3324             -200               0             -200               0
1.04605              -0.02478942       -10.41251        -67.81902        -155.901             -200               0             -200               0
1.05263              -0.02575696       -10.50394        -67.53512       -160.4568             -200               0             -200               0
1.05921               -0.0267382       -10.59575        -67.28769       -164.9859             -200               0             -200               0
1.06579              -0.02772706       -10.68796        -67.07542       -169.4754             -200               0             -200               0
1.07237              -0.02871619        -10.7806        -66.89721        -173.912             -200               0             -200               0
1.07895              -0.02969997        -10.8737        -66.75213       -178.2825             -200               0             -200               0
1.08553               -0.0306732       -10.96731        -66.63941        177.4272             -200               0             -200               0
1.09211               -0.0316319       -11.06147        -66.55834         173.232             -200               0             -200               0
1.09868              -0.03257247       -11.15624        -66.50826        169.1482             -200               0             -200               0
1.10526              -0.03349155       -11.25167        -66.48848        165.1937             -200               0             -200               0
1.11184              -0.03439001       -11.34783        -66.49823        161.3886             -200               0             -200               0
1.11842              -0.03526679       -11.44479        -66.53659        157.7551             -200               0             -200               0
1.125                -0.03612364       -11.54261        -66.60228        154.3186             -200               0             -200               0
1.13158              -0.03696415       -11.64135        -66.69364        151.1069             -200               0             -200               0
1.13816              -0.03779158       -11.74107         -66.8083        148.1516             -200               0             -200               0
1.14474              -0.03861229       -11.84183        -66.94302        145.4866             -200               0             -200               0
1.15132               -0.0394323       -11.94369        -67.09334        143.1486             -200               0             -200               0
1.15789              -0.04025934       -12.04669        -67.25322        141.1745             -200               0             -200               0
1.16447              -0.04110084       -12.15088        -67.41467        139.5998             -200               0             -200               0
1.17105              -0.04196698       -12.25627        -67.56744        138.4534             -200               0             -200               0
1.17763              -0.04286673        -12.3629         -67.6989        137.7522             -200               0             -200               0
1.18421              -0.04380976       -12.47079        -67.79433        137.4932             -200               0             -200               0
1.19079              -0.04480461       -12.57993        -67.83776        137.6451             -200               0             -200               0
1.19737              -0.04586199       -12.69033        -67.81361         138.143             -200               0             -200               0
1.20395              -0.04698994       -12.80198        -67.70887        138.8868             -200               0             -200               0
1.21053              -0.04819617       -12.91485        -67.51543         139.749             -200               0             -200               0
1.21711              -0.04948866       -13.02892        -67.23166        140.5884             -200               0             -200               0
1.22368               -0.0508735       -13.14416        -66.86273          141.27             -200               0             -200               0
1.23026              -0.05235538       -13.26054        -66.41949        141.6813             -200               0             -200               0
1.23684              -0.05393858       -13.37801        -65.91629        141.7428             -200               0             -200               0
1.24342              -0.05562496       -13.49654        -65.36871        141.4102             -200               0             -200               0
1.25                 -0.05741531       -13.61609        -64.79167        140.6701             -200               0             -200               0
1.25658              -0.05931021       -13.73662         -64.1982        139.5325             -200               0             -200               0
1.26316               -0.0613078       -13.85808        -63.59901        138.0225             -200               0             -200               0
1.26974              -0.06340432       -13.98046        -63.00243        136.1735             -200               0             -200               0
1.27632              -0.06559586       -14.10373        -62.41466        134.0226             -200               0             -200               0
1.28289              -0.06787711       -14.22786        -61.84014        131.6069             -200               0             -200               0
1.28947              -0.07024361       -14.35285        -61.28192        128.9618             -200               0             -200               0
1.29605              -0.07268719        -14.4787        -60.74198          126.12             -200               0             -200               0
1.30263              -0.07520214       -14.60542        -60.22146        123.1108             -200               0             -200               0
1.30921               -0.0777806       -14.73302        -59.72096        119.9605             -200               0             -200               0
1.31579              -0.08041575       -14.86154        -59.24061        116.6925             -200               0             -200               0
1.32237              -0.08310267       -14.99102        -58.78024        113.3272             -200               0             -200               0
1.32895              -0.08583316       -15.12151        -58.33948        109.8829             -200               0             -200               0
1.33553              -0.08860392       -15.25306        -57.91778        106.3756             -200               0             -200               0
1.34211              -0.09141077       -15.38574        -57.51447        102.8196             -200               0             -200               0
1.34868              -0.09425024       -15.51963        -57.12884        99.22761             -200               0             -200               0
1.35526              -0.09712204       -15.65481        -56.76009        95.61085             -200               0             -200               0
1.36184               -0.1000265       -15.79136        -56.40739         91.9795             -200               0             -200               0
1.36842                -0.102965       -15.92937        -56.06986        88.34266             -200               0             -200               0
1.375                 -0.1059413       -16.06891        -55.74661        84.70852             -200               0             -200               0
1.38158                -0.108961       -16.21009        -55.43671        81.08447             -200               0             -200               0
1.38816                -0.112031       -16.35298        -55.13923        77.47713             -200               0             -200               0
1.39474               -0.1151596       -16.49766        -54.85319        73.89246             -200               0             -200               0
1.40132               -0.1183564        -16.6442        -54.57759        70.33574             -200               0             -200               0
1.40789               -0.1216324       -16.79268        -54.31141        66.81164             -200               0             -200               0
1.41447               -0.1250006       -16.94314        -54.05362        63.32414             -200               0             -200               0
1.42105               -0.1284736       -17.09563        -53.80314        59.87664             -200               0             -200               0
1.42763               -0.1320648        -17.2502        -53.55888        56.47182             -200               0             -200               0
1.43421               -0.1357875       -17.40687        -53.31975        53.11172             -200               0             -200               0
1.44079               -0.1396552       -17.56565        -53.08462        49.79762             -200               0             -200               0
1.44737               -0.1436823       -17.72655        -52.85238        46.53009             -200               0             -200               0
1.45395               -0.1478806       -17.88957        -52.62192         43.3089             -200               0             -200               0
1.46053               -0.1522631        -18.0547        -52.39215        40.13305             -200               0             -200               0
1.46711               -0.1568399       -18.22192          -52.162        37.00071             -200               0             -200               0
1.47368               -0.1616212        -18.3912        -51.93048        33.90928             -200               0             -200               0
1.48026               -0.1666153        -18.5625        -51.69662        30.85538             -200               0             -200               0
1.48684                -0.171829       -18.73579        -51.45956         27.8349             -200               0             -200               0
1.49342               -0.1772674       -18.91104        -51.21853        24.84309             -200               0             -200               0
1.5                    -0.182934       -19.08822        -50.97288        21.87462             -200               0             -200               0
1.50658               -0.1888304       -19.26728        -50.72207        18.92369             -200               0             -200               0
1.51316               -0.1949573        -19.4482        -50.46569        15.98418             -200               0             -200               0
1.51974               -0.2013125       -19.63097        -50.20348        13.04977             -200               0             -200               0
1.52632                -0.207895       -19.81557        -49.93532        10.11412             -200               0             -200               0
1.53289               -0.2146989       -20.00199        -49.66122        7.170949             -200               0             -200               0
1.53947               -0.2217217       -20.19025        -49.38133        4.214238             -200               0             -200               0
1.54605                -0.228958       -20.38037        -49.09592         1.23832             -200               0             -200               0
1.55263               -0.2364013       -20.57238        -48.80535       -1.761996             -200               0             -200               0
1.55921               -0.2440466       -20.76635        -48.51011       -4.791346             -200               0             -200               0
1.56579               -0.2518903       -20.96234        -48.21072       -7.853739             -200               0             -200               0
1.57237               -0.2599263       -21.16041        -47.90778       -10.95254             -200               0             -200               0
1.57895               -0.2681526       -21.36068        -47.60194       -14.09041             -200               0             -200               0
1.58553               -0.2765675       -21.56325        -47.29384       -17.26936             -200               0             -200               0
1.59211               -0.2851708       -21.76823        -46.98416       -20.49075             -200               0             -200               0
1.59868               -0.2939662       -21.97576        -46.67355       -23.75532             -200               0             -200               0
1.60526               -0.3029557       -22.18597        -46.36264       -27.06324             -200               0             -200               0
1.61184               -0.3121477       -22.39901        -46.05204       -30.41417             -200               0             -200               0
1.61842               -0.3215523       -22.61504        -45.74233       -33.80732             -200               0             -200               0
1.625                 -0.3311807       -22.83419        -45.43404       -37.24151             -200               0             -200               0
1.63158               -0.3410486       -23.05662        -45.12763        -40.7152             -200               0             -200               0
1.63816               -0.3511738       -23.28248        -44.82355       -44.22663             -200               0             -200               0
1.64474               -0.3615772        -23.5119        -44.52219       -47.77376             -200               0             -200               0
1.65132               -0.3722805       -23.74503        -44.22386       -51.35441             -200               0             -200               0
1.65789               -0.3833084       -23.98199        -43.92885       -54.96626             -200               0             -200               0
1.66447               -0.3946919       -24.22287        -43.63739       -58.60692             -200               0             -200               0
1.67105               -0.4064562        -24.4678        -43.34967       -62.27393             -200               0             -200               0
1.67763               -0.4186331       -24.71684        -43.06583       -65.96483             -200               0             -200               0
1.68421               -0.4312529       -24.97007        -42.78595       -69.67716             -200               0             -200               0
1.69079               -0.4443499       -25.22754         -42.5101       -73.40852             -200               0             -200               0
1.69737               -0.4579567       -25.48928         -42.2383       -77.15652             -200               0             -200               0
1.70395               -0.4721027       -25.75532        -41.97053        -80.9189             -200               0             -200               0
1.71053               -0.4868222       -26.02566        -41.70672       -84.69346             -200               0             -200               0
1.71711               -0.5021457       -26.30029        -41.44681       -88.47812             -200               0             -200               0
1.72368               -0.5181035       -26.57918        -41.19068       -92.27091             -200               0             -200               0
1.73026               -0.5347235       -26.86233        -40.93819       -96.07001             -200               0             -200               0
1.73684               -0.5520338       -27.14967        -40.68918       -99.87372             -200               0             -200               0
1.74342                -0.570057       -27.44117        -40.44347       -103.6805             -200               0             -200               0
1.75                  -0.5888188       -27.73679        -40.20086       -107.4891             -200               0             -200               0
1.75658               -0.6083403       -28.03647        -39.96113       -111.2981             -200               0             -200               0
1.76316               -0.6286398       -28.34018        -39.72405       -115.1066             -200               0             -200               0
1.76974                -0.649736       -28.64788        -39.48938       -118.9138             -200               0             -200               0
1.77632               -0.6716443       -28.95955        -39.25687        -122.719             -200               0             -200               0
1.78289               -0.6943795       -29.27516        -39.02626       -126.5216             -200               0             -200               0
1.78947               -0.7179542       -29.59473        -38.79729       -130.3216             -200               0             -200               0
1.79605               -0.7423824       -29.91826         -38.5697       -134.1186             -200               0             -200               0
1.80263                -0.767677       -30.24581        -38.34323       -137.9129             -200               0             -200               0
1.80921               -0.7938509        -30.5774        -38.11763       -141.7048             -200               0             -200               0
1.81579               -0.8209183       -30.91315        -37.89265       -145.4947             -200               0             -200               0
1.82237               -0.8488935       -31.25313        -37.66807       -149.2833             -200               0             -200               0
1.82895               -0.8777963       -31.59748        -37.44366       -153.0714             -200               0             -200               0
1.83553               -0.9076457       -31.94633        -37.21922         -156.86             -200               0             -200               0
1.84211               -0.9384643       -32.29986        -36.99456       -160.6501             -200               0             -200               0
1.84868               -0.9702811       -32.65823        -36.76952       -164.4431             -200               0             -200               0
1.85526                -1.003127       -33.02166        -36.54396       -168.2404             -200               0             -200               0
1.86184                -1.037041       -33.39035        -36.31776       -172.0432             -200               0             -200               0
1.86842                -1.072062       -33.76451        -36.09084       -175.8533             -200               0             -200               0
1.875                  -1.108242        -34.1444        -35.86313       -179.6722             -200               0             -200               0
1.88158                -1.145633       -34.53023         -35.6346        176.4986             -200               0             -200               0
1.88816                -1.184298       -34.92222        -35.40523        172.6573             -200               0             -200               0
1.89474                -1.224303       -35.32062        -35.17504        168.8024             -200               0             -200               0
1.90132                -1.265724       -35.72562        -34.94408        164.9322             -200               0             -200               0
1.90789                -1.308642       -36.13742        -34.71242        161.0452             -200               0             -200               0
1.91447                -1.353145        -36.5562        -34.48015          157.14             -200               0             -200               0
1.92105                -1.399328        -36.9821        -34.24738        153.2151             -200               0             -200               0
1.92763                -1.447293       -37.41525        -34.01425        149.2692             -200               0             -200               0
1.93421                -1.497146       -37.85573        -33.78092        145.3011             -200               0             -200               0
1.94079                -1.549002       -38.30358        -33.54754        141.3096             -200               0             -200               0
1.94737                -1.602977       -38.75882        -33.31431        137.2939             -200               0             -200               0
1.95395                -1.659197       -39.22141        -33.08141         133.253             -200               0             -200               0
1.96053                -1.717788       -39.69126        -32.84905        129.1862             -200               0             -200               0
1.96711                -1.778881       -40.16825        -32.61744         125.093             -200               0             -200               0
1.97368                -1.842612       -40.65219        -32.38679        120.9728             -200               0             -200               0
1.98026                -1.909118       -41.14283         -32.1573        116.8252             -200               0             -200               0
1.98684                -1.978538       -41.63992        -31.92921        112.6501             -200               0             -200               0
1.99342                -2.051015        -42.1431        -31.70271        108.4474             -200               0             -200               0
2                      -2.126692       -42.65199        -31.47803        104.2169             -200               0             -200               0
2.00658                -2.205712       -43.16614        -31.25537        99.95888             -200               0             -200               0
2.01316                -2.288222       -43.68507        -31.03494        95.67343             -200               0             -200               0
2.01974                -2.374363       -44.20824        -30.81692        91.36086             -200               0             -200               0
2.02632                -2.464285       -44.73509        -30.60151        87.02151             -200               0             -200               0
2.03289                -2.558131       -45.26495        -30.38889        82.65581             -200               0             -200               0
2.03947                -2.656049       -45.79716        -30.17923        78.26426             -200               0             -200               0
2.04605                -2.758183       -46.33102         -29.9727        73.84741             -200               0             -200               0
2.05263                -2.864681       -46.86576        -29.76946        69.40586             -200               0             -200               0
2.05921                -2.975691       -47.40057        -29.56966        64.94026             -200               0             -200               0
2.06579                -3.091361       -47.93465        -29.37342         60.4513             -200               0             -200               0
2.07237                -3.211841       -48.46709         -29.1809        55.93969             -200               0             -200               0
2.07895                -3.337286       -48.99698         -28.9922        51.40619             -200               0             -200               0
2.08553                -3.467851       -49.52339        -28.80744        46.85156             -200               0             -200               0
2.09211                -3.603697       -50.04529        -28.62674        42.27659             -200               0             -200               0
2.09868                -3.744988       -50.56167        -28.45018        37.68208             -200               0             -200               0
2.10526                -3.891895       -51.07142        -28.27786        33.06884             -200               0             -200               0
2.11184                -4.044599       -51.57339        -28.10987         28.4377             -200               0             -200               0
2.11842                -4.203284       -52.06641        -27.94628        23.78949             -200               0             -200               0
2.125                  -4.368149       -52.54918        -27.78717        19.12503             -200               0             -200               0
2.13158                -4.539401       -53.02035        -27.63259        14.44514             -200               0             -200               0
2.13816                -4.717261       -53.47848        -27.48262        9.750655             -200               0             -200               0
2.14474                -4.901965       -53.92202         -27.3373          5.0424             -200               0             -200               0
2.15132                -5.093766       -54.34929        -27.19667       0.3211955             -200               0             -200               0
2.15789                 -5.29293       -54.75848         -27.0608       -4.412144             -200               0             -200               0
2.16447                 -5.49975       -55.14759        -26.92971       -9.156809             -200               0             -200               0
2.17105                -5.714535       -55.51443        -26.80345         -13.912             -200               0             -200               0
2.17763                -5.937616       -55.85657        -26.68204       -18.67691             -200               0             -200               0
2.18421                -6.169352       -56.17132        -26.56551       -23.45077             -200               0             -200               0
2.19079                -6.410128       -56.45564        -26.45388       -28.23278             -200               0             -200               0
2.19737                 -6.66035       -56.70613        -26.34719       -33.02217             -200               0             -200               0
2.20395                -6.920457       -56.91897        -26.24544       -37.81817             -200               0             -200               0
2.21053                -7.190914       -57.08978        -26.14865       -42.62002             -200               0             -200               0
2.21711                -7.472211        -57.2136        -26.05684       -47.42697             -200               0             -200               0
2.22368                -7.764863       -57.28475        -25.97002       -52.23828             -200               0             -200               0
2.23026                -8.069408       -57.29675        -25.88818       -57.05319             -200               0             -200               0
2.23684                -8.386394       -57.24208        -25.81135       -61.87097             -200               0             -200               0
2.24342                 -8.71638       -57.11214        -25.73952       -66.69088             -200               0             -200               0
2.25                    -9.05991       -56.89697        -25.67269       -71.51221             -200               0             -200               0
2.25658                -9.417505       -56.58501        -25.61087       -76.33422             -200               0             -200               0
2.26316                -9.789622       -56.16291        -25.55406        -81.1562             -200               0             -200               0
2.26974                -10.17662       -55.61514        -25.50224       -85.97743             -200               0             -200               0
2.27632                -10.57872       -54.92371        -25.45541       -90.79718             -200               0             -200               0
2.28289                -10.99587       -54.06781        -25.41357       -95.61476             -200               0             -200               0
2.28947                 -11.4277       -53.02343         -25.3767       -100.4294             -200               0             -200               0