! TOUCHSTONE file generated by CST MICROWAVE STUDIO
! Date and time: Tue Mar 18 00:02:27 2025
! Project name: oblique.cst
! Parameters = {Tilt=40; Fracture=1; B=10; D=160; F=25; Feed=2.85625; L=100; M=10; R=0.384908; S=2; Theta=270; length=57.125; wave=114.25}
! Header version: 2024
! Port assignment regex: !\s*Touchstone port\s*([0-9]+)\s*=\s*(CST MWS port|CST DES external port|CST DES block port)\s*(.+)\s* \(\"(.*)\"\)(\s*mode\s*([0-9]+))?.*
! Touchstone port assignment:
! Touchstone port 1 = CST MWS port 1 ("")
! Touchstone port 2 = CST MWS port 2 ("")
# GHz S DB R 50
1                     -0.0192959       -9.776885        -68.72609       -163.1383             -200               0             -200               0
1.00658              -0.02004891       -9.864941        -68.61565       -166.7051             -200               0             -200               0
1.01316               -0.0208335       -9.953473        -68.51883       -170.1418             -200               0             -200               0
1.01974              -0.02164886       -10.04248         -68.4336       -173.4389             -200               0             -200               0
1.02632                -0.022491       -10.13196        -68.35765       -176.5869             -200               0             -200               0
1.03289              -0.02335797       -10.22192        -68.28842       -179.5774             -200               0             -200               0
1.03947              -0.02424714       -10.31237        -68.22298        177.5965             -200               0             -200               0
1.04605              -0.02515472       -10.40332        -68.15812        174.9401             -200               0             -200               0
1.05263              -0.02607987       -10.49478        -68.09027        172.4557             -200               0             -200               0
1.05921              -0.02701913       -10.58677        -68.01565        170.1427             -200               0             -200               0
1.06579              -0.02797094       -10.67933        -67.93024         167.996             -200               0             -200               0
1.07237              -0.02893366       -10.77246        -67.83003        166.0059             -200               0             -200               0
1.07895              -0.02990611        -10.8662        -67.71109        164.1574             -200               0             -200               0
1.08553              -0.03088796       -10.96059        -67.56982        162.4303             -200               0             -200               0
1.09211              -0.03187846       -11.05565        -67.40317        160.7996             -200               0             -200               0
1.09868              -0.03287975       -11.15141        -67.20886        159.2357             -200               0             -200               0
1.10526              -0.03389102       -11.24791         -66.9855        157.7066             -200               0             -200               0
1.11184              -0.03491548       -11.34518        -66.73274         156.179             -200               0             -200               0
1.11842              -0.03595481       -11.44325        -66.45126          154.62             -200               0             -200               0
1.125                -0.03701291       -11.54215        -66.14272        152.9992             -200               0             -200               0
1.13158              -0.03809156        -11.6419        -65.80956        151.2899             -200               0             -200               0
1.13816              -0.03919574       -11.74252        -65.45485        149.4702             -200               0             -200               0
1.14474              -0.04032956       -11.84405        -65.08206        147.5233             -200               0             -200               0
1.15132              -0.04149607       -11.94648        -64.69482        145.4378             -200               0             -200               0
1.15789              -0.04270165       -12.04984        -64.29675        143.2072             -200               0             -200               0
1.16447              -0.04394967       -12.15413        -63.89132        140.8294             -200               0             -200               0
1.17105              -0.04524508       -12.25937        -63.48174        138.3057             -200               0             -200               0
1.17763              -0.04659109       -12.36554        -63.07088        135.6406             -200               0             -200               0
1.18421              -0.04799182       -12.47264        -62.66127        132.8404             -200               0             -200               0
1.19079               -0.0494516       -12.58067         -62.2551        129.9131             -200               0             -200               0
1.19737              -0.05097282       -12.68963        -61.85419        126.8677             -200               0             -200               0
1.20395              -0.05255729       -12.79949        -61.46007        123.7136             -200               0             -200               0
1.21053               -0.0542086       -12.91025        -61.07397        120.4606             -200               0             -200               0
1.21711              -0.05592705       -13.02189        -60.69688        117.1182             -200               0             -200               0
1.22368               -0.0577125       -13.13441        -60.32956        113.6959             -200               0             -200               0
1.23026              -0.05956589       -13.24779        -59.97261         110.203             -200               0             -200               0
1.23684                -0.061486       -13.36201        -59.62645        106.6481             -200               0             -200               0
1.24342              -0.06347192       -13.47708        -59.29137        103.0398             -200               0             -200               0
1.25                 -0.06552072       -13.59298        -58.96754        99.38588             -200               0             -200               0
1.25658               -0.0676317       -13.70972        -58.65505        95.69397             -200               0             -200               0
1.26316               -0.0698006       -13.82729        -58.35391        91.97119             -200               0             -200               0
1.26974               -0.0720249       -13.94571        -58.06403        88.22426             -200               0             -200               0
1.27632              -0.07430084       -14.06498        -57.78529        84.45959             -200               0             -200               0
1.28289               -0.0766261       -14.18512         -57.5175        80.68322             -200               0             -200               0
1.28947              -0.07899598       -14.30616        -57.26044        76.90088             -200               0             -200               0
1.29605              -0.08140816       -14.42812        -57.01382        73.11801             -200               0             -200               0
1.30263              -0.08386011       -14.55104        -56.77734         69.3398             -200               0             -200               0
1.30921              -0.08634902       -14.67495        -56.55065        65.57116             -200               0             -200               0
1.31579              -0.08887197       -14.79989        -56.33335        61.81677             -200               0             -200               0
1.32237              -0.09142854        -14.9259        -56.12501        58.08108             -200               0             -200               0
1.32895              -0.09401785       -15.05305        -55.92517        54.36831             -200               0             -200               0
1.33553              -0.09663911       -15.18137        -55.73334        50.68244             -200               0             -200               0
1.34211              -0.09929453       -15.31093        -55.54897         47.0272             -200               0             -200               0
1.34868               -0.1019842       -15.44176        -55.37149        43.40608             -200               0             -200               0
1.35526               -0.1047111       -15.57394        -55.20027         39.8223             -200               0             -200               0
1.36184               -0.1074773        -15.7075        -55.03466        36.27876             -200               0             -200               0
1.36842                -0.110287       -15.84251        -54.87397        32.77806             -200               0             -200               0
1.375                 -0.1131449       -15.97901        -54.71746         29.3224             -200               0             -200               0
1.38158               -0.1160553       -16.11704        -54.56437        25.91361             -200               0             -200               0
1.38816               -0.1190246       -16.25667         -54.4139        22.55307             -200               0             -200               0
1.39474               -0.1220575       -16.39791        -54.26521        19.24166             -200               0             -200               0
1.40132               -0.1251605       -16.54081        -54.11747        15.97973             -200               0             -200               0
1.40789                 -0.12834       -16.68541        -53.96981        12.76708             -200               0             -200               0
1.41447               -0.1316016       -16.83173        -53.82137        9.602898             -200               0             -200               0
1.42105               -0.1349517        -16.9798        -53.67129        6.485729             -200               0             -200               0
1.42763               -0.1383967       -17.12963        -53.51873        3.413488             -200               0             -200               0
1.43421               -0.1419417       -17.28126         -53.3629       0.3834365             -200               0             -200               0
1.44079                -0.145591       -17.43469        -53.20304       -2.607791             -200               0             -200               0
1.44737               -0.1493495       -17.58994        -53.03847        -5.56416             -200               0             -200               0
1.45395               -0.1532219       -17.74703        -52.86857       -8.490176             -200               0             -200               0
1.46053               -0.1572112       -17.90597        -52.69282       -11.39082             -200               0             -200               0
1.46711               -0.1613203       -18.06678        -52.51082       -14.27146             -200               0             -200               0
1.47368               -0.1655506       -18.22948        -52.32225       -17.13773             -200               0             -200               0
1.48026               -0.1699045       -18.39408        -52.12692       -19.99542             -200               0             -200               0
1.48684               -0.1743829       -18.56062        -51.92477       -22.85039             -200               0             -200               0
1.49342               -0.1789863       -18.72912        -51.71585       -25.70839             -200               0             -200               0
1.5                   -0.1837142       -18.89962        -51.50031       -28.57496             -200               0             -200               0
1.50658               -0.1885673       -19.07217        -51.27843       -31.45535             -200               0             -200               0
1.51316               -0.1935454        -19.2468        -51.05057       -34.35438             -200               0             -200               0
1.51974               -0.1986485       -19.42359        -50.81716       -37.27639             -200               0             -200               0
1.52632               -0.2038771       -19.60259        -50.57872       -40.22518             -200               0             -200               0
1.53289               -0.2092321       -19.78388        -50.33581       -43.20395             -200               0             -200               0
1.53947               -0.2147131       -19.96754        -50.08903       -46.21529             -200               0             -200               0
1.54605               -0.2203253       -20.15366          -49.839       -49.26119             -200               0             -200               0
1.55263               -0.2260684       -20.34232        -49.58634       -52.34303             -200               0             -200               0
1.55921               -0.2319498       -20.53365        -49.33168       -55.46163             -200               0             -200               0
1.56579               -0.2379723       -20.72774        -49.07562       -58.61727             -200               0             -200               0
1.57237               -0.2441447        -20.9247        -48.81874       -61.80976             -200               0             -200               0
1.57895                -0.250476       -21.12465        -48.56158       -65.03844             -200               0             -200               0
1.58553               -0.2569743       -21.32771        -48.30466        -68.3023             -200               0             -200               0
1.59211               -0.2636535         -21.534        -48.04844       -71.59997             -200               0             -200               0
1.59868               -0.2705264       -21.74364        -47.79332       -74.92982             -200               0             -200               0
1.60526               -0.2776081       -21.95675        -47.53969       -78.28999             -200               0             -200               0
1.61184               -0.2849152       -22.17344        -47.28785       -81.67845             -200               0             -200               0
1.61842               -0.2924687       -22.39382        -47.03807         -85.093             -200               0             -200               0
1.625                 -0.3002864       -22.61801        -46.79057       -88.53138             -200               0             -200               0
1.63158               -0.3083911        -22.8461        -46.54553       -91.99128             -200               0             -200               0
1.63816               -0.3168035       -23.07818        -46.30305       -95.47033             -200               0             -200               0
1.64474               -0.3255514       -23.31433        -46.06322        -98.9662             -200               0             -200               0
1.65132               -0.3346563       -23.55465        -45.82607       -102.4766             -200               0             -200               0
1.65789               -0.3441453       -23.79919         -45.5916       -105.9993             -200               0             -200               0
1.66447               -0.3540445       -24.04801        -45.35975       -109.5321             -200               0             -200               0
1.67105               -0.3643798       -24.30116        -45.13045       -113.0729             -200               0             -200               0
1.67763               -0.3751792       -24.55869        -44.90358         -116.62             -200               0             -200               0
1.68421               -0.3864675       -24.82062          -44.679       -120.1714             -200               0             -200               0
1.69079               -0.3982717       -25.08699        -44.45653       -123.7256             -200               0             -200               0
1.69737               -0.4106179        -25.3578        -44.23596       -127.2811             -200               0             -200               0
1.70395               -0.4235316       -25.63309        -44.01708       -130.8367             -200               0             -200               0
1.71053               -0.4370368       -25.91285        -43.79965       -134.3914             -200               0             -200               0
1.71711               -0.4511594        -26.1971        -43.58341       -137.9442             -200               0             -200               0
1.72368               -0.4659199       -26.48583        -43.36808       -141.4946             -200               0             -200               0
1.73026               -0.4813448       -26.77907        -43.15339       -145.0422             -200               0             -200               0
1.73684               -0.4974522       -27.07681        -42.93905       -148.5868             -200               0             -200               0
1.74342               -0.5142663       -27.37907        -42.72478       -152.1286             -200               0             -200               0
1.75                  -0.5318067       -27.68588         -42.5103       -155.6677             -200               0             -200               0
1.75658               -0.5500943       -27.99724        -42.29532       -159.2049             -200               0             -200               0
1.76316               -0.5691486       -28.31321        -42.07959       -162.7407             -200               0             -200               0
1.76974               -0.5889923       -28.63381        -41.86284       -166.2763             -200               0             -200               0
1.77632                -0.609644       -28.95911        -41.64486       -169.8129             -200               0             -200               0
1.78289               -0.6311274       -29.28916        -41.42543       -173.3517             -200               0             -200               0
1.78947               -0.6534643       -29.62405        -41.20436       -176.8944             -200               0             -200               0
1.79605               -0.6766786       -29.96385        -40.98149        179.5573             -200               0             -200               0
1.80263               -0.7007956       -30.30868        -40.75671        176.0017             -200               0             -200               0
1.80921               -0.7258438       -30.65863        -40.52991        172.4367             -200               0             -200               0
1.81579               -0.7518522       -31.01384        -40.30105        168.8605             -200               0             -200               0
1.82237               -0.7788546       -31.37443        -40.07008        165.2709             -200               0             -200               0
1.82895                -0.806887       -31.74054        -39.83703        161.6659             -200               0             -200               0
1.83553               -0.8359881       -32.11233        -39.60193        158.0436             -200               0             -200               0
1.84211               -0.8662018       -32.48994        -39.36486        154.4019             -200               0             -200               0
1.84868               -0.8975752       -32.87355        -39.12594        150.7389             -200               0             -200               0
1.85526               -0.9301597       -33.26329         -38.8853        147.0527             -200               0             -200               0
1.86184               -0.9640108       -33.65935        -38.64311        143.3418             -200               0             -200               0
1.86842               -0.9991906       -34.06186        -38.39955        139.6044             -200               0             -200               0
1.875                  -1.035763       -34.47098        -38.15484        135.8392             -200               0             -200               0
1.88158                -1.073801       -34.88686        -37.90921        132.0448             -200               0             -200               0
1.88816                -1.113378       -35.30961         -37.6629        128.2201             -200               0             -200               0
1.89474                -1.154577       -35.73936        -37.41617        124.3643             -200               0             -200               0
1.90132                -1.197481        -36.1762        -37.16929        120.4764             -200               0             -200               0
1.90789                -1.242184       -36.62022        -36.92251        116.5559             -200               0             -200               0
1.91447                -1.288781       -37.07147        -36.67612        112.6023             -200               0             -200               0
1.92105                -1.337372       -37.52996        -36.43038        108.6154             -200               0             -200               0
1.92763                -1.388063       -37.99572        -36.18557        104.5948             -200               0             -200               0
1.93421                -1.440966       -38.46871        -35.94195        100.5408             -200               0             -200               0
1.94079                -1.496193       -38.94887        -35.69978        96.45325             -200               0             -200               0
1.94737                -1.553866       -39.43611        -35.45931        92.33255             -200               0             -200               0
1.95395                -1.614106       -39.93029        -35.22079        88.17902             -200               0             -200               0
1.96053                -1.677042       -40.43125        -34.98445        83.99311             -200               0             -200               0
1.96711                -1.742804       -40.93878         -34.7505        79.77538             -200               0             -200               0
1.97368                -1.811526       -41.45263        -34.51917        75.52643             -200               0             -200               0
1.98026                -1.883349       -41.97251        -34.29064        71.24698             -200               0             -200               0
1.98684                -1.958412       -42.49807        -34.06511        66.93777             -200               0             -200               0
1.99342                -2.036862       -43.02894        -33.84275        62.59961             -200               0             -200               0
2                      -2.118847       -43.56468        -33.62372        58.23334             -200               0             -200               0
2.00658                -2.204517       -44.10482        -33.40819        53.83986             -200               0             -200               0
2.01316                 -2.29403       -44.64883        -33.19628        49.42007             -200               0             -200               0
2.01974                 -2.38754       -45.19614        -32.98813        44.97489             -200               0             -200               0
2.02632                 -2.48521       -45.74609        -32.78386         40.5053             -200               0             -200               0
2.03289                -2.587205       -46.29801        -32.58358        36.01224             -200               0             -200               0
2.03947                -2.693694       -46.85114        -32.38738        31.49667             -200               0             -200               0
2.04605                -2.804846       -47.40468        -32.19537        26.95957             -200               0             -200               0
2.05263                -2.920839       -47.95776        -32.00762         22.4019             -200               0             -200               0
2.05921                -3.041851       -48.50942         -31.8242        17.82463             -200               0             -200               0
2.06579                -3.168067       -49.05865        -31.64519        13.22872             -200               0             -200               0
2.07237                -3.299675       -49.60437        -31.47065        8.615114             -200               0             -200               0
2.07895                -3.436867       -50.14538        -31.30061         3.98476             -200               0             -200               0
2.08553                -3.579842       -50.68043        -31.13514      -0.6614121             -200               0             -200               0
2.09211                -3.728806       -51.20814        -30.97428       -5.322488             -200               0             -200               0
2.09868                -3.883965       -51.72705        -30.81805       -9.997557             -200               0             -200               0
2.10526                -4.045539       -52.23557         -30.6665       -14.68573             -200               0             -200               0
2.11184                -4.213746       -52.73196        -30.51963       -19.38613             -200               0             -200               0
2.11842                -4.388815       -53.21438        -30.37749       -24.09789             -200               0             -200               0
2.125                  -4.570983       -53.68079        -30.24008       -28.82016             -200               0             -200               0
2.13158                 -4.76049         -54.129        -30.10741       -33.55209             -200               0             -200               0
2.13816                -4.957585       -54.55664         -29.9795       -38.29288             -200               0             -200               0
2.14474                -5.162524       -54.96107        -29.85635       -43.04171             -200               0             -200               0
2.15132                -5.375567       -55.33947        -29.73797       -47.79777             -200               0             -200               0
2.15789                -5.596981       -55.68869        -29.62435       -52.56029             -200               0             -200               0
2.16447                -5.827037       -56.00531         -29.5155        -57.3285             -200               0             -200               0
2.17105                -6.066008       -56.28557        -29.41141       -62.10163             -200               0             -200               0
2.17763                -6.314167       -56.52529        -29.31206       -66.87893             -200               0             -200               0
2.18421                -6.571786       -56.71989        -29.21746       -71.65967             -200               0             -200               0
2.19079                 -6.83913       -56.86427        -29.12759       -76.44312             -200               0             -200               0
2.19737                -7.116449       -56.95278        -29.04243       -81.22855             -200               0             -200               0
2.20395                -7.403977       -56.97916        -28.96197       -86.01525             -200               0             -200               0
2.21053                -7.701919       -56.93644        -28.88619       -90.80253             -200               0             -200               0
2.21711                -8.010433       -56.81685        -28.81508        -95.5897             -200               0             -200               0
2.22368                -8.329627       -56.61174         -28.7486       -100.3761             -200               0             -200               0
2.23026                -8.659526       -56.31149        -28.68673       -105.1609             -200               0             -200               0
2.23684                -9.000049       -55.90536        -28.62945       -109.9436             -200               0             -200               0
2.24342                -9.350981       -55.38147        -28.57673       -114.7235             -200               0             -200               0
2.25                   -9.711917       -54.72664        -28.52853       -119.4999             -200               0             -200               0
2.25658                -10.08222       -53.92637        -28.48484       -124.2722             -200               0             -200               0
2.26316                -10.46094       -52.96485         -28.4456       -129.0396             -200               0             -200               0
2.26974                -10.84676       -51.82496        -28.41079       -133.8016             -200               0             -200               0
2.27632                -11.23785       -50.48856        -28.38037       -138.5576             -200               0             -200               0
2.28289                -11.63181       -48.93685        -28.35429       -143.3068             -200               0             -200               0
2.28947                 -12.0255       -47.15096        -28.33252       -148.0487             -200               0             -200               0