! TOUCHSTONE file generated by CST MICROWAVE STUDIO
! Date and time: Tue Mar 18 00:02:58 2025
! Project name: oblique.cst
! Parameters = {Tilt=40; Fracture=1; B=12.5; D=160; F=15; Feed=2.85625; L=100; M=30; R=0.384908; S=2; Theta=180; length=57.125; wave=114.25}
! Header version: 2024
! Port assignment regex: !\s*Touchstone port\s*([0-9]+)\s*=\s*(CST MWS port|CST DES external port|CST DES block port)\s*(.+)\s* \(\"(.*)\"\)(\s*mode\s*([0-9]+))?.*
! Touchstone port assignment:
! Touchstone port 1 = CST MWS port 1 ("")
! Touchstone port 2 = CST MWS port 2 ("")
# GHz S DB R 50
1                    -0.02195329       -9.769819        -65.45515        168.7406             -200               0             -200               0
1.00662              -0.02253033       -9.856032        -65.53895        162.6432             -200               0             -200               0
1.01325              -0.02308057       -9.942964        -65.66189        156.6457             -200               0             -200               0
1.01987              -0.02360975       -10.03067        -65.82629        150.7568             -200               0             -200               0
1.02649              -0.02412175       -10.11921        -66.03491        144.9879             -200               0             -200               0
1.03311               -0.0246241       -10.20863        -66.29111        139.3544             -200               0             -200               0
1.03974              -0.02512454       -10.29898        -66.59895        133.8768             -200               0             -200               0
1.04636              -0.02563092       -10.39028        -66.96333        128.5826             -200               0             -200               0
1.05298              -0.02615251       -10.48256        -67.39014        123.5088             -200               0             -200               0
1.0596               -0.02669869       -10.57583         -67.8865        118.7063             -200               0             -200               0
1.06623              -0.02727909       -10.67012         -68.4609        114.2458             -200               0             -200               0
1.07285              -0.02790215        -10.7654        -69.12331        110.2277             -200               0             -200               0
1.07947              -0.02857756       -10.86167        -69.88494        106.7976             -200               0             -200               0
1.08609              -0.02931267       -10.95891        -70.75714        104.1714             -200               0             -200               0
1.09272              -0.03011501        -11.0571        -71.74791        102.6744             -200               0             -200               0
1.09934              -0.03099187       -11.15619        -72.85244        102.7976             -200               0             -200               0
1.10596              -0.03194713       -11.25615        -74.02971        105.2498             -200               0             -200               0
1.11258              -0.03298625       -11.35693        -75.15361        110.8879             -200               0             -200               0
1.11921              -0.03411132       -11.45848        -75.95256        120.1752             -200               0             -200               0
1.12583              -0.03532177       -11.56076         -76.0673        131.9602             -200               0             -200               0
1.13245              -0.03661913       -11.66373        -75.36122        143.2073             -200               0             -200               0
1.13907              -0.03800132       -11.76732        -74.08633         151.364             -200               0             -200               0
1.1457               -0.03946399       -11.87151        -72.59535        155.9643             -200               0             -200               0
1.15232              -0.04100422       -11.97625        -71.10666        157.7141             -200               0             -200               0
1.15894              -0.04261428       -12.08152        -69.71026        157.4478             -200               0             -200               0
1.16556              -0.04428922       -12.18729        -68.43081        155.7986             -200               0             -200               0
1.17219              -0.04602065       -12.29355        -67.26694        153.1956             -200               0             -200               0
1.17881              -0.04780155       -12.40029        -66.20868        149.9228             -200               0             -200               0
1.18543              -0.04962337       -12.50753         -65.2443          146.17             -200               0             -200               0
1.19205              -0.05147728       -12.61528        -64.36272        142.0668             -200               0             -200               0
1.19868              -0.05335606       -12.72357        -63.55426         137.704             -200               0             -200               0
1.2053               -0.05525119       -12.83243        -62.81068        133.1464             -200               0             -200               0
1.21192              -0.05715734       -12.94192        -62.12504        128.4418             -200               0             -200               0
1.21854              -0.05906673       -13.05208        -61.49155         123.626             -200               0             -200               0
1.22517              -0.06097617       -13.16298        -60.90531        118.7267             -200               0             -200               0
1.23179              -0.06288191       -13.27469        -60.36221        113.7655             -200               0             -200               0
1.23841              -0.06478125       -13.38729        -59.85877        108.7597             -200               0             -200               0
1.24503              -0.06667481       -13.50085        -59.39203        103.7234             -200               0             -200               0
1.25166              -0.06856286       -13.61544        -58.95945        98.66868             -200               0             -200               0
1.25828              -0.07044849       -13.73115        -58.55884        93.60556             -200               0             -200               0
1.2649               -0.07233691       -13.84805        -58.18831        88.54294             -200               0             -200               0
1.27152              -0.07423275       -13.96621        -57.84623        83.48874             -200               0             -200               0
1.27815                -0.076144       -14.08571        -57.53116        78.45023             -200               0             -200               0
1.28477              -0.07807912        -14.2066        -57.24184        73.43417             -200               0             -200               0
1.29139               -0.0800473       -14.32893        -56.97715        68.44704             -200               0             -200               0
1.29801              -0.08205916       -14.45274         -56.7361        63.49515             -200               0             -200               0
1.30464              -0.08412611       -14.57807        -56.51777        58.58475             -200               0             -200               0
1.31126              -0.08625794       -14.70494        -56.32135        53.72216             -200               0             -200               0
1.31788              -0.08846746       -14.83337        -56.14606        48.91381             -200               0             -200               0
1.3245               -0.09076461       -14.96335        -55.99117        44.16639             -200               0             -200               0
1.33113              -0.09315991       -15.09487        -55.85597        39.48686             -200               0             -200               0
1.33775              -0.09566356       -15.22793        -55.73973        34.88253             -200               0             -200               0
1.34437              -0.09828372       -15.36249        -55.64171        30.36115             -200               0             -200               0
1.35099               -0.1010269       -15.49853        -55.56114         25.9309             -200               0             -200               0
1.35762               -0.1039008         -15.636        -55.49714        21.60046             -200               0             -200               0
1.36424               -0.1069093       -15.77487        -55.44875        17.37898             -200               0             -200               0
1.37086               -0.1100543       -15.91509        -55.41485        13.27608             -200               0             -200               0
1.37748               -0.1133374       -16.05663        -55.39419        9.301807             -200               0             -200               0
1.38411               -0.1167583       -16.19943        -55.38524        5.466481             -200               0             -200               0
1.39073               -0.1203145       -16.34347        -55.38626        1.780528             -200               0             -200               0
1.39735               -0.1240021       -16.48872        -55.39519       -1.745791             -200               0             -200               0
1.40397                -0.127816       -16.63515         -55.4096       -5.102772             -200               0             -200               0
1.4106                 -0.131751       -16.78276        -55.42671       -8.281768             -200               0             -200               0
1.41722               -0.1357983       -16.93153         -55.4433       -11.27585             -200               0             -200               0
1.42384               -0.1399509       -17.08149        -55.45577       -14.08058             -200               0             -200               0
1.43046               -0.1441995       -17.23265        -55.46012       -16.69491             -200               0             -200               0
1.43709               -0.1485364       -17.38504        -55.45209       -19.12214             -200               0             -200               0
1.44371               -0.1529533       -17.53873        -55.42722       -21.37076             -200               0             -200               0
1.45033               -0.1574429       -17.69378        -55.38108       -23.45523             -200               0             -200               0
1.45695               -0.1619982       -17.85024        -55.30953       -25.39626             -200               0             -200               0
1.46358               -0.1666123       -18.00823        -55.20893       -27.22068             -200               0             -200               0
1.4702                -0.1712819       -18.16783        -55.07644       -28.96064             -200               0             -200               0
1.47682               -0.1760054       -18.32916        -54.91027        -30.6522             -200               0             -200               0
1.48344               -0.1807807       -18.49232         -54.7098        -32.3334             -200               0             -200               0
1.49007               -0.1856105       -18.65744        -54.47565       -34.04204             -200               0             -200               0
1.49669               -0.1904981       -18.82465        -54.20958       -35.81354             -200               0             -200               0
1.50331                -0.195449       -18.99408        -53.91438       -37.67905             -200               0             -200               0
1.50993                -0.200472       -19.16584        -53.59354       -39.66418             -200               0             -200               0
1.51656               -0.2055774       -19.34007        -53.25107        -41.7883             -200               0             -200               0
1.52318                -0.210778       -19.51687        -52.89115       -44.06451             -200               0             -200               0
1.5298                -0.2160879       -19.69637        -52.51796       -46.50003             -200               0             -200               0
1.53642               -0.2215241       -19.87866        -52.13546       -49.09697             -200               0             -200               0
1.54305               -0.2271032       -20.06383        -51.74731       -51.85325             -200               0             -200               0
1.54967               -0.2328463       -20.25197        -51.35675       -54.76352             -200               0             -200               0
1.55629               -0.2387721       -20.44313         -50.9666       -57.82007             -200               0             -200               0
1.56291               -0.2449014       -20.63738        -50.57925       -61.01354             -200               0             -200               0
1.56954               -0.2512547       -20.83475        -50.19672        -64.3336             -200               0             -200               0
1.57616               -0.2578527       -21.03527        -49.82063       -67.76941             -200               0             -200               0
1.58278               -0.2647162       -21.23895        -49.45229          -71.31             -200               0             -200               0
1.5894                -0.2718648       -21.44579        -49.09272        -74.9445             -200               0             -200               0
1.59603               -0.2793151       -21.65579        -48.74272       -78.66236             -200               0             -200               0
1.60265               -0.2870853       -21.86891        -48.40285       -82.45343             -200               0             -200               0
1.60927               -0.2951902       -22.08514        -48.07352       -86.30806             -200               0             -200               0
1.61589               -0.3036439       -22.30445        -47.75497       -90.21706             -200               0             -200               0
1.62252               -0.3124563        -22.5268        -47.44735       -94.17178             -200               0             -200               0
1.62914               -0.3216381       -22.75215        -47.15066       -98.16405             -200               0             -200               0
1.63576               -0.3311958       -22.98048        -46.86486       -102.1862             -200               0             -200               0
1.64238               -0.3411356       -23.21176        -46.58979       -106.2309             -200               0             -200               0
1.64901               -0.3514599       -23.44597        -46.32524       -110.2915             -200               0             -200               0
1.65563               -0.3621723        -23.6831        -46.07094       -114.3613             -200               0             -200               0
1.66225               -0.3732709       -23.92316        -45.82656       -118.4344             -200               0             -200               0
1.66887               -0.3847556       -24.16617        -45.59173       -122.5051             -200               0             -200               0
1.6755                -0.3966266       -24.41215        -45.36601       -126.5678             -200               0             -200               0
1.68212               -0.4088797       -24.66117        -45.14893       -130.6175             -200               0             -200               0
1.68874               -0.4215148       -24.91329        -44.93997       -134.6493             -200               0             -200               0
1.69536                -0.434527       -25.16861        -44.73854       -138.6589             -200               0             -200               0
1.70199               -0.4479182       -25.42723        -44.54404        -142.642             -200               0             -200               0
1.70861               -0.4616879       -25.68929        -44.35579       -146.5948             -200               0             -200               0
1.71523               -0.4758386       -25.95493        -44.17308       -150.5139             -200               0             -200               0
1.72185               -0.4903741       -26.22432        -43.99514       -154.3961             -200               0             -200               0
1.72848               -0.5053016       -26.49764        -43.82117       -158.2389             -200               0             -200               0
1.7351                  -0.52063        -26.7751         -43.6503       -162.0402             -200               0             -200               0
1.74172                -0.536374       -27.05688        -43.48164       -165.7982             -200               0             -200               0
1.74834               -0.5525497       -27.34323        -43.31427        -169.512             -200               0             -200               0
1.75497               -0.5691758       -27.63435        -43.14722       -173.1812             -200               0             -200               0
1.76159               -0.5862771       -27.93048        -42.97951        -176.806             -200               0             -200               0
1.76821               -0.6038824       -28.23186        -42.81017        179.6124             -200               0             -200               0
1.77483               -0.6220233       -28.53871        -42.63821        176.0722             -200               0             -200               0
1.78146               -0.6407351       -28.85125        -42.46269         172.571             -200               0             -200               0
1.78808               -0.6600564       -29.16971        -42.28269        169.1052             -200               0             -200               0
1.7947                -0.6800308       -29.49429        -42.09735        165.6707             -200               0             -200               0
1.80132                -0.700706       -29.82521         -41.9059        162.2626             -200               0             -200               0
1.80795               -0.7221294       -30.16264        -41.70766        158.8753             -200               0             -200               0
1.81457               -0.7443546       -30.50675        -41.50206        155.5026             -200               0             -200               0
1.82119               -0.7674352       -30.85771        -41.28867        152.1379             -200               0             -200               0
1.82781               -0.7914285       -31.21567        -41.06716        148.7741             -200               0             -200               0
1.83444               -0.8163934       -31.58074        -40.83739        145.4042             -200               0             -200               0
1.84106               -0.8423903       -31.95305        -40.59935         142.021             -200               0             -200               0
1.84768               -0.8694795       -32.33268        -40.35315        138.6173             -200               0             -200               0
1.8543                 -0.897724       -32.71974        -40.09907        135.1864             -200               0             -200               0
1.86093               -0.9271881        -33.1143         -39.8375        131.7218             -200               0             -200               0
1.86755               -0.9579345       -33.51641        -39.56895        128.2178             -200               0             -200               0
1.87417               -0.9900296       -33.92615        -39.29402        124.6689             -200               0             -200               0
1.88079                -1.023538       -34.34357        -39.01338        121.0707             -200               0             -200               0
1.88742                -1.058526       -34.76872        -38.72776        117.4191             -200               0             -200               0
1.89404                 -1.09506       -35.20166        -38.43793        113.7111             -200               0             -200               0
1.90066                 -1.13321       -35.64242         -38.1447         109.944             -200               0             -200               0
1.90728                -1.173045       -36.09109        -37.84885        106.1162             -200               0             -200               0
1.91391                -1.214637       -36.54772        -37.55118        102.2264             -200               0             -200               0
1.92053                -1.258061       -37.01239        -37.25245        98.27416             -200               0             -200               0
1.92715                -1.303395       -37.48518        -36.95341        94.25931             -200               0             -200               0
1.93377                -1.350717       -37.96618        -36.65475        90.18231             -200               0             -200               0
1.9404                 -1.400116        -38.4555        -36.35715        86.04396             -200               0             -200               0
1.94702                -1.451681       -38.95323         -36.0612        81.84543             -200               0             -200               0
1.95364                -1.505509       -39.45952        -35.76749        77.58813             -200               0             -200               0
1.96026                -1.561704       -39.97448        -35.47653        73.27374             -200               0             -200               0
1.96689                -1.620374       -40.49826        -35.18879        68.90405             -200               0             -200               0
1.97351                -1.681641       -41.03097         -34.9047        64.48105             -200               0             -200               0
1.98013                -1.745632       -41.57275        -34.62465        60.00678             -200               0             -200               0
1.98675                -1.812484       -42.12374        -34.34897        55.48336             -200               0             -200               0
1.99338                -1.882348       -42.68403        -34.07798        50.91292             -200               0             -200               0
2                      -1.955383       -43.25374        -33.81193        46.29764             -200               0             -200               0
2.00662                -2.031763       -43.83293        -33.55106        41.63963             -200               0             -200               0
2.01325                -2.111671       -44.42164        -33.29558        36.94102             -200               0             -200               0
2.01987                -2.195306       -45.01988        -33.04566        32.20391             -200               0             -200               0
2.02649                -2.282882       -45.62761        -32.80145        27.43029             -200               0             -200               0
2.03311                -2.374624       -46.24473        -32.56309        22.62218             -200               0             -200               0
2.03974                -2.470775       -46.87108        -32.33068        17.78148             -200               0             -200               0
2.04636                 -2.57159       -47.50645        -32.10431        12.91004             -200               0             -200               0
2.05298                -2.677343        -48.1505        -31.88406        8.009667             -200               0             -200               0
2.0596                 -2.788322       -48.80286        -31.66999        3.082076             -200               0             -200               0
2.06623                 -2.90483       -49.46302        -31.46216       -1.871068             -200               0             -200               0
2.07285                -3.027191       -50.13037        -31.26059       -6.848168             -200               0             -200               0
2.07947                -3.155742       -50.80416        -31.06532       -11.84769             -200               0             -200               0
2.08609                -3.290839       -51.48355        -30.87636       -16.86816             -200               0             -200               0
2.09272                -3.432858       -52.16751        -30.69374       -21.90817             -200               0             -200               0
2.09934                -3.582188       -52.85487        -30.51745       -26.96635             -200               0             -200               0
2.10596                -3.739243       -53.54429         -30.3475       -32.04141             -200               0             -200               0
2.11258                -3.904454       -54.23422        -30.18389       -37.13208             -200               0             -200               0
2.11921                -4.078275       -54.92292        -30.02661       -42.23718             -200               0             -200               0
2.12583                -4.261182       -55.60839        -29.87565       -47.35552             -200               0             -200               0
2.13245                -4.453672        -56.2884        -29.73099       -52.48601             -200               0             -200               0
2.13907                -4.656269       -56.96044        -29.59263       -57.62756             -200               0             -200               0
2.1457                 -4.869525       -57.62166        -29.46054       -62.77914             -200               0             -200               0
2.15232                -5.094017       -58.26885         -29.3347       -67.93974             -200               0             -200               0
2.15894                -5.330354       -58.89844         -29.2151       -73.10839             -200               0             -200               0
2.16556                -5.579179       -59.50633        -29.10171       -78.28414             -200               0             -200               0
2.17219                -5.841167       -60.08795        -28.99451       -83.46609             -200               0             -200               0
2.17881                -6.117033       -60.63812        -28.89349       -88.65334             -200               0             -200               0
2.18543                -6.407528       -61.15094        -28.79861       -93.84501             -200               0             -200               0
2.19205                -6.713444        -61.6197        -28.70985       -99.04027             -200               0             -200               0
2.19868                -7.035615       -62.03672         -28.6272       -104.2383             -200               0             -200               0
2.2053                 -7.374914       -62.39321        -28.55063       -109.4382             -200               0             -200               0
2.21192                -7.732249       -62.67902        -28.48011       -114.6393             -200               0             -200               0
2.21854                -8.108561       -62.88238        -28.41563       -119.8408             -200               0             -200               0
2.22517                -8.504806       -62.98963        -28.35715       -125.0418             -200               0             -200               0
2.23179                -8.921937       -62.98476        -28.30467       -130.2416             -200               0             -200               0
2.23841                -9.360871       -62.84901        -28.25815       -135.4395             -200               0             -200               0
2.24503                -9.822434       -62.56023        -28.21758       -140.6346             -200               0             -200               0
2.25166                -10.30728       -62.09225        -28.18292       -145.8263             -200               0             -200               0
2.25828                -10.81578       -61.41408        -28.15417       -151.0138             -200               0             -200               0
2.2649                 -11.34782       -60.48899        -28.13129       -156.1962             -200               0             -200               0
2.27152                -11.90256       -59.27371        -28.11428        -161.373             -200               0             -200               0
2.27815                -12.47802       -57.71761        -28.10309       -166.5432             -200               0             -200               0
2.28477                -13.07055        -55.7625        -28.09772       -171.7063             -200               0             -200               0
2.29139                -13.67409       -53.34339        -28.09813       -176.8612             -200               0             -200               0
2.29801                -14.27921       -50.39148        -28.10431        177.9926             -200               0             -200               0