! TOUCHSTONE file generated by CST MICROWAVE STUDIO
! Date and time: Tue Mar 18 00:03:03 2025
! Project name: oblique.cst
! Parameters = {Tilt=40; Fracture=1; B=12.5; D=160; F=25; Feed=2.85625; L=100; M=30; R=0.384908; S=1; Theta=180; length=57.125; wave=114.25}
! Header version: 2024
! Port assignment regex: !\s*Touchstone port\s*([0-9]+)\s*=\s*(CST MWS port|CST DES external port|CST DES block port)\s*(.+)\s* \(\"(.*)\"\)(\s*mode\s*([0-9]+))?.*
! Touchstone port assignment:
! Touchstone port 1 = CST MWS port 1 ("")
! Touchstone port 2 = CST MWS port 2 ("")
# GHz S DB R 50
1                     -0.0217345       -9.790949        -65.13512        163.9738             -200               0             -200               0
1.0066               -0.02227267       -9.877114        -65.20284        157.7974             -200               0             -200               0
1.0132               -0.02278225       -9.964023        -65.30783        151.7252             -200               0             -200               0
1.0198               -0.02326954       -10.05173        -65.45211        145.7651             -200               0             -200               0
1.0264               -0.02373876       -10.14031        -65.63813        139.9281             -200               0             -200               0
1.033                -0.02419692       -10.22979        -65.86881        134.2288             -200               0             -200               0
1.0396               -0.02465494       -10.32022        -66.14765        128.6866             -200               0             -200               0
1.0462               -0.02511912       -10.41163        -66.47882        123.3273             -200               0             -200               0
1.05281               -0.0255986       -10.50405        -66.86728        118.1854             -200               0             -200               0
1.05941                -0.026105       -10.59749        -67.31889        113.3074             -200               0             -200               0
1.06601              -0.02664698       -10.69196        -67.84049         108.757             -200               0             -200               0
1.07261               -0.0272345       -10.78746        -68.43988        104.6227             -200               0             -200               0
1.07921              -0.02787736       -10.88396        -69.12549        101.0297             -200               0             -200               0
1.08581              -0.02858133       -10.98144        -69.90532        98.15805             -200               0             -200               0
1.09241              -0.02935618       -11.07988        -70.78411        96.26924             -200               0             -200               0
1.09901              -0.03020775       -11.17924        -71.75655        95.74222             -200               0             -200               0
1.10561              -0.03114144       -11.27947        -72.79201        97.10412             -200               0             -200               0
1.11221              -0.03216079       -11.38053        -73.80461        100.9921             -200               0             -200               0
1.11881              -0.03326789       -11.48237         -74.6135        107.8682             -200               0             -200               0
1.12541              -0.03446426       -11.58493        -74.95105        117.3036             -200               0             -200               0
1.13201              -0.03574794       -11.68818        -74.62048         127.418             -200               0             -200               0
1.13861              -0.03711774       -11.79206        -73.69004        135.8488             -200               0             -200               0
1.14521              -0.03856993       -11.89653        -72.41928         141.398             -200               0             -200               0
1.15182              -0.04009955       -12.00156        -71.04342        144.1678             -200               0             -200               0
1.15842               -0.0417003       -12.10711        -69.69402        144.7653             -200               0             -200               0
1.16502              -0.04336561       -12.21317        -68.42587        143.7909             -200               0             -200               0
1.17162              -0.04508807       -12.31973        -67.25476        141.7006             -200               0             -200               0
1.17822              -0.04685902       -12.42678         -66.1798        138.8139             -200               0             -200               0
1.18482              -0.04867083       -12.53434        -65.19398         135.351             -200               0             -200               0
1.19142              -0.05051403       -12.64242        -64.28865        131.4647             -200               0             -200               0
1.19802              -0.05238233       -12.75105        -63.45539        127.2624             -200               0             -200               0
1.20462              -0.05426654       -12.86028         -62.6866        122.8215             -200               0             -200               0
1.21122              -0.05616232       -12.97016        -61.97566        118.1988             -200               0             -200               0
1.21782              -0.05806105       -13.08074        -61.31686        113.4366             -200               0             -200               0
1.22442              -0.05996162       -13.19209        -60.70535        108.5676             -200               0             -200               0
1.23102               -0.0618586       -13.30429          -60.137         103.617             -200               0             -200               0
1.23762              -0.06375233       -13.41741        -59.60826        98.60482             -200               0             -200               0
1.24422              -0.06564281       -13.53152        -59.11609        93.54734             -200               0             -200               0
1.25083              -0.06753123       -13.64671        -58.65787        88.45792             -200               0             -200               0
1.25743              -0.06942228       -13.76306        -58.23135        83.34777             -200               0             -200               0
1.26403              -0.07132121       -13.88064        -57.83455        78.22651             -200               0             -200               0
1.27063              -0.07323358       -13.99952        -57.46576        73.10252             -200               0             -200               0
1.27723              -0.07516858       -14.11977        -57.12348        67.98326             -200               0             -200               0
1.28383              -0.07713526       -14.24145        -56.80637        62.87551             -200               0             -200               0
1.29043              -0.07914455        -14.3646        -56.51324        57.78553             -200               0             -200               0
1.29703              -0.08120613       -14.48926        -56.24305        52.71927             -200               0             -200               0
1.30363              -0.08333309       -14.61547        -55.99484        47.68241             -200               0             -200               0
1.31023              -0.08553651       -14.74323        -55.76773        42.68054             -200               0             -200               0
1.31683               -0.0878291       -14.87256        -55.56093        37.71919             -200               0             -200               0
1.32343              -0.09021914       -15.00345        -55.37369        32.80392             -200               0             -200               0
1.33003              -0.09272112       -15.13589        -55.20529        27.94041             -200               0             -200               0
1.33663              -0.09534282       -15.26985        -55.05503        23.13449             -200               0             -200               0
1.34323              -0.09809308       -15.40532        -54.92222        18.39216             -200               0             -200               0
1.34984               -0.1009797       -15.54223        -54.80617         13.7197             -200               0             -200               0
1.35644               -0.1040083       -15.68057        -54.70614        9.123645             -200               0             -200               0
1.36304                -0.107183       -15.82028        -54.62136        4.610809             -200               0             -200               0
1.36964               -0.1105071       -15.96131        -54.55097       0.1883034             -200               0             -200               0
1.37624               -0.1139802       -16.10363        -54.49405       -4.136494             -200               0             -200               0
1.38284               -0.1176023       -16.24718        -54.44952       -8.355974             -200               0             -200               0
1.38944                 -0.12137       -16.39192        -54.41622       -12.46237             -200               0             -200               0
1.39604               -0.1252811       -16.53784        -54.39276       -16.44788             -200               0             -200               0
1.40264               -0.1293284       -16.68491        -54.37759       -20.30482             -200               0             -200               0
1.40924                -0.133506        -16.8331        -54.36894       -24.02585             -200               0             -200               0
1.41584               -0.1378074       -16.98243        -54.36477       -27.60426             -200               0             -200               0
1.42244                -0.142224        -17.1329        -54.36279       -31.03434             -200               0             -200               0
1.42904               -0.1467484       -17.28454        -54.36045       -34.31182             -200               0             -200               0
1.43564               -0.1513721       -17.43738        -54.35492       -37.43439             -200               0             -200               0
1.44224               -0.1560873       -17.59147        -54.34317       -40.40222             -200               0             -200               0
1.44884               -0.1608874       -17.74689        -54.32198       -43.21854             -200               0             -200               0
1.45545               -0.1657665       -17.90369        -54.28805       -45.89021             -200               0             -200               0
1.46205               -0.1707203       -18.06197        -54.23811       -48.42799             -200               0             -200               0
1.46865               -0.1757457       -18.22182        -54.16907       -50.84688             -200               0             -200               0
1.47525                -0.180841       -18.38336        -54.07819       -53.16591             -200               0             -200               0
1.48185               -0.1860079       -18.54668        -53.96321       -55.40782             -200               0             -200               0
1.48845               -0.1912493        -18.7119        -53.82252       -57.59823             -200               0             -200               0
1.49505               -0.1965705       -18.87914        -53.65529       -59.76459             -200               0             -200               0
1.50165               -0.2019788       -19.04851        -53.46148        -61.9349             -200               0             -200               0
1.50825               -0.2074844       -19.22013        -53.24188        -64.1364             -200               0             -200               0
1.51485               -0.2130983        -19.3941        -52.99801       -66.39425             -200               0             -200               0
1.52145               -0.2188353       -19.57052        -52.73202       -68.73057             -200               0             -200               0
1.52805               -0.2247104       -19.74948        -52.44653       -71.16367             -200               0             -200               0
1.53465               -0.2307409       -19.93106        -52.14447       -73.70773             -200               0             -200               0
1.54125               -0.2369451       -20.11533        -51.82893        -76.3727             -200               0             -200               0
1.54785               -0.2433416       -20.30233        -51.50299       -79.16459             -200               0             -200               0
1.55446               -0.2499497        -20.4921        -51.16963       -82.08586             -200               0             -200               0
1.56106               -0.2567902       -20.68468        -50.83164       -85.13593             -200               0             -200               0
1.56766               -0.2638816       -20.88007        -50.49157       -88.31179             -200               0             -200               0
1.57426               -0.2712424       -21.07826        -50.15169        -91.6085             -200               0             -200               0
1.58086               -0.2788913       -21.27925        -49.81399       -95.01974             -200               0             -200               0
1.58746               -0.2868427       -21.48299        -49.48016       -98.53818             -200               0             -200               0
1.59406               -0.2951125       -21.68945        -49.15167       -102.1559             -200               0             -200               0
1.60066               -0.3037122       -21.89859        -48.82972       -105.8646             -200               0             -200               0
1.60726               -0.3126534       -22.11036         -48.5153       -109.6559             -200               0             -200               0
1.61386                -0.321943        -22.3247         -48.2092       -113.5215             -200               0             -200               0
1.62046               -0.3315868       -22.54156        -47.91207       -117.4531             -200               0             -200               0
1.62706               -0.3415887        -22.7609        -47.62437       -121.4426             -200               0             -200               0
1.63366               -0.3519492       -22.98268        -47.34648       -125.4825             -200               0             -200               0
1.64026               -0.3626661       -23.20686        -47.07864       -129.5652             -200               0             -200               0
1.64686               -0.3737374       -23.43342        -46.82101       -133.6835             -200               0             -200               0
1.65347               -0.3851564       -23.66236        -46.57365       -137.8307             -200               0             -200               0
1.66007               -0.3969174       -23.89369        -46.33657            -142             -200               0             -200               0
1.66667               -0.4090138       -24.12745         -46.1097       -146.1853             -200               0             -200               0
1.67327                -0.421436       -24.36369        -45.89291       -150.3804             -200               0             -200               0
1.67987               -0.4341757       -24.60249        -45.68602       -154.5794             -200               0             -200               0
1.68647               -0.4472271       -24.84394        -45.48882       -158.7768             -200               0             -200               0
1.69307               -0.4605815       -25.08818          -45.301        -162.967             -200               0             -200               0
1.69967               -0.4742331       -25.33533        -45.12225       -167.1449             -200               0             -200               0
1.70627                -0.488181       -25.58558        -44.95217       -171.3054             -200               0             -200               0
1.71287               -0.5024238       -25.83912        -44.79035       -175.4435             -200               0             -200               0
1.71947               -0.5169628       -26.09614         -44.6363       -179.5545             -200               0             -200               0
1.72607               -0.5318052       -26.35686        -44.48947         176.366             -200               0             -200               0
1.73267               -0.5469598       -26.62154        -44.34927        172.3224             -200               0             -200               0
1.73927               -0.5624407       -26.89041        -44.21505        168.3186             -200               0             -200               0
1.74587               -0.5782653       -27.16372        -44.08607        164.3585             -200               0             -200               0
1.75248               -0.5944576       -27.44173        -43.96156        160.4456             -200               0             -200               0
1.75908               -0.6110436        -27.7247        -43.84067        156.5827             -200               0             -200               0
1.76568                -0.628056       -28.01288        -43.72247        152.7725             -200               0             -200               0
1.77228               -0.6455302       -28.30652          -43.606        149.0171             -200               0             -200               0
1.77888               -0.6635051       -28.60583        -43.49021        145.3179             -200               0             -200               0
1.78548               -0.6820264       -28.91105        -43.37403        141.6755             -200               0             -200               0
1.79208               -0.7011406       -29.22237        -43.25631        138.0899             -200               0             -200               0
1.79868               -0.7208994       -29.53998         -43.1359        134.5602             -200               0             -200               0
1.80528               -0.7413543       -29.86404        -43.01164        131.0846             -200               0             -200               0
1.81188               -0.7625623       -30.19468        -42.88237          127.66             -200               0             -200               0
1.81848               -0.7845783       -30.53202        -42.74696        124.2826             -200               0             -200               0
1.82508               -0.8074614       -30.87616        -42.60436        120.9475             -200               0             -200               0
1.83168               -0.8312706       -31.22717        -42.45359        117.6487             -200               0             -200               0
1.83828               -0.8560627       -31.58509        -42.29377        114.3793             -200               0             -200               0
1.84488               -0.8818964       -31.94998        -42.12419        111.1317             -200               0             -200               0
1.85149               -0.9088299       -32.32183        -41.94429        107.8974             -200               0             -200               0
1.85809               -0.9369174       -32.70066        -41.75367        104.6677             -200               0             -200               0
1.86469               -0.9662155       -33.08647        -41.55215        101.4333             -200               0             -200               0
1.87129               -0.9967764       -33.47924        -41.33972         98.1851             -200               0             -200               0
1.87789                -1.028651       -33.87897        -41.11658        94.91409             -200               0             -200               0
1.88449                -1.061891       -34.28565        -40.88311        91.61161             -200               0             -200               0
1.89109                -1.096544       -34.69927        -40.63985        88.26958             -200               0             -200               0
1.89769                -1.132659       -35.11986        -40.38747        84.88065             -200               0             -200               0
1.90429                -1.170282       -35.54744        -40.12681        81.43832             -200               0             -200               0
1.91089                -1.209462       -35.98206        -39.85875          77.937             -200               0             -200               0
1.91749                -1.250245        -36.4238        -39.58425        74.37208             -200               0             -200               0
1.92409                -1.292683       -36.87274        -39.30434        70.73993             -200               0             -200               0
1.93069                -1.336825       -37.32902        -39.02003        67.03786             -200               0             -200               0
1.93729                -1.382727        -37.7928        -38.73233        63.26404             -200               0             -200               0
1.94389                -1.430449       -38.26426        -38.44223        59.41751             -200               0             -200               0
1.9505                 -1.480056       -38.74363         -38.1507        55.49798             -200               0             -200               0
1.9571                 -1.531618       -39.23116        -37.85863        51.50586             -200               0             -200               0
1.9637                 -1.585215       -39.72713        -37.56687        47.44206             -200               0             -200               0
1.9703                 -1.640934       -40.23184        -37.27621        43.30798             -200               0             -200               0
1.9769                 -1.698874       -40.74562        -36.98735        39.10537             -200               0             -200               0
1.9835                 -1.759144       -41.26882        -36.70097        34.83629             -200               0             -200               0
1.9901                 -1.821865       -41.80179        -36.41765        30.50299             -200               0             -200               0
1.9967                 -1.887172       -42.34489        -36.13791        26.10792             -200               0             -200               0
2.0033                 -1.955214       -42.89849        -35.86223        21.65362             -200               0             -200               0
2.0099                 -2.026153       -43.46293        -35.59103         17.1427             -200               0             -200               0
2.0165                 -2.100172       -44.03854        -35.32466        12.57779             -200               0             -200               0
2.0231                 -2.177466       -44.62564        -35.06345        7.961507             -200               0             -200               0
2.0297                  -2.25825       -45.22447        -34.80767        3.296457             -200               0             -200               0
2.0363                 -2.342753       -45.83527        -34.55757       -1.414809             -200               0             -200               0
2.0429                 -2.431225       -46.45819        -34.31334       -6.169806             -200               0             -200               0
2.0495                 -2.523935       -47.09333        -34.07515       -10.96611             -200               0             -200               0
2.05611                -2.621168        -47.7407        -33.84316       -15.80141             -200               0             -200               0
2.06271                -2.723229       -48.40023        -33.61747       -20.67342             -200               0             -200               0
2.06931                -2.830445       -49.07175         -33.3982       -25.58001             -200               0             -200               0
2.07591                -2.943156         -49.755        -33.18542       -30.51909             -200               0             -200               0
2.08251                -3.061729       -50.44956         -32.9792       -35.48868             -200               0             -200               0
2.08911                -3.186546       -51.15492        -32.77958       -40.48688             -200               0             -200               0
2.09571                -3.318011       -51.87041        -32.58661       -45.51189             -200               0             -200               0
2.10231                -3.456547       -52.59522        -32.40032       -50.56196             -200               0             -200               0
2.10891                -3.602602       -53.32837        -32.22071       -55.63546             -200               0             -200               0
2.11551                -3.756646       -54.06868         -32.0478       -60.73079             -200               0             -200               0
2.12211                -3.919171       -54.81484         -31.8816       -65.84647             -200               0             -200               0
2.12871                -4.090694       -55.56527         -31.7221       -70.98106             -200               0             -200               0
2.13531                -4.271762       -56.31822         -31.5693       -76.13318             -200               0             -200               0
2.14191                -4.462946       -57.07162        -31.42319       -81.30152             -200               0             -200               0
2.14851                -4.664854       -57.82321        -31.28375       -86.48483             -200               0             -200               0
2.15512                -4.878125       -58.57038        -31.15097       -91.68191             -200               0             -200               0
2.16172                -5.103436       -59.31017        -31.02483        -96.8916             -200               0             -200               0
2.16832                -5.341508       -60.03928        -30.90532       -102.1128             -200               0             -200               0
2.17492                -5.593108       -60.75393         -30.7924       -107.3444             -200               0             -200               0
2.18152                -5.859054       -61.44986        -30.68607       -112.5854             -200               0             -200               0
2.18812                -6.140223       -62.12223        -30.58629       -117.8349             -200               0             -200               0
2.19472                -6.437556       -62.76553        -30.49305       -123.0918             -200               0             -200               0
2.20132                -6.752064       -63.37341        -30.40633       -128.3553             -200               0             -200               0
2.20792                -7.084844        -63.9386        -30.32611       -133.6243             -200               0             -200               0
2.21452                -7.437074       -64.45266        -30.25236       -138.8981             -200               0             -200               0
2.22112                -7.810031       -64.90579        -30.18506       -144.1758             -200               0             -200               0
2.22772                -8.205098       -65.28647         -30.1242       -149.4566             -200               0             -200               0
2.23432                -8.623764       -65.58109        -30.06976       -154.7395             -200               0             -200               0
2.24092                 -9.06763        -65.7735        -30.02171       -160.0239             -200               0             -200               0
2.24752                -9.538397        -65.8443        -29.98004       -165.3089             -200               0             -200               0
2.25413                -10.03785       -65.77006        -29.94474       -170.5938             -200               0             -200               0
2.26073                -10.56782       -65.52223        -29.91579       -175.8776             -200               0             -200               0
2.26733                -11.13007       -65.06578        -29.89318        178.8402             -200               0             -200               0
2.27393                -11.72621       -64.35752        -29.87689        173.5605             -200               0             -200               0
2.28053                -12.35735       -63.34382         -29.8669        168.2841             -200               0             -200               0
2.28713                -13.02376       -61.95815        -29.86321        163.0117             -200               0             -200               0
2.29373                 -13.7241       -60.11813        -29.86581        157.7441             -200               0             -200               0