! TOUCHSTONE file generated by CST MICROWAVE STUDIO
! Date and time: Tue Mar 18 00:03:00 2025
! Project name: oblique.cst
! Parameters = {Tilt=40; Fracture=1; B=12.5; D=160; F=15; Feed=2.85625; L=100; M=50; R=0.384908; S=2; Theta=270; length=57.125; wave=114.25}
! Header version: 2024
! Port assignment regex: !\s*Touchstone port\s*([0-9]+)\s*=\s*(CST MWS port|CST DES external port|CST DES block port)\s*(.+)\s* \(\"(.*)\"\)(\s*mode\s*([0-9]+))?.*
! Touchstone port assignment:
! Touchstone port 1 = CST MWS port 1 ("")
! Touchstone port 2 = CST MWS port 2 ("")
# GHz S DB R 50
1                    -0.02021025       -9.801135        -68.90155        160.9058             -200               0             -200               0
1.00658              -0.02098563       -9.888983        -68.82931        155.6771             -200               0             -200               0
1.01316              -0.02177475       -9.977326        -68.78523        150.5465             -200               0             -200               0
1.01974              -0.02257626       -10.06618         -68.7692        145.5231             -200               0             -200               0
1.02632              -0.02338936       -10.15557        -68.78118         140.618             -200               0             -200               0
1.03289              -0.02421091       -10.24552        -68.82114        135.8438             -200               0             -200               0
1.03947              -0.02504089       -10.33605        -68.88904        131.2156             -200               0             -200               0
1.04605              -0.02587933       -10.42718        -68.98476        126.7512             -200               0             -200               0
1.05263              -0.02672541       -10.51895        -69.10801        122.4712             -200               0             -200               0
1.05921              -0.02757954       -10.61138        -69.25825        118.3999             -200               0             -200               0
1.06579              -0.02844408       -10.70451        -69.43452        114.5655             -200               0             -200               0
1.07237              -0.02931885       -10.79836        -69.63525        111.0004             -200               0             -200               0
1.07895              -0.03020722       -10.89296        -69.85797        107.7416             -200               0             -200               0
1.08553              -0.03111108       -10.98834        -70.09899        104.8304             -200               0             -200               0
1.09211              -0.03203237       -11.08452        -70.35288         102.311             -200               0             -200               0
1.09868              -0.03297679       -11.18152        -70.61204        100.2288             -200               0             -200               0
1.10526              -0.03394634       -11.27936        -70.86607        98.62563             -200               0             -200               0
1.11184              -0.03494465       -11.37806        -71.10142        97.53312             -200               0             -200               0
1.11842              -0.03597719       -11.47763        -71.30132        96.96297             -200               0             -200               0
1.125                -0.03704618       -11.57808        -71.44653        96.89519             -200               0             -200               0
1.13158              -0.03815616       -11.67941         -71.5171        97.26718             -200               0             -200               0
1.13816              -0.03931067       -11.78163        -71.49522        97.96844             -200               0             -200               0
1.14474              -0.04051334       -11.88474        -71.36871         98.8462             -200               0             -200               0
1.15132              -0.04176688       -11.98873        -71.13373        99.72381             -200               0             -200               0
1.15789              -0.04307613       -12.09359        -70.79574        100.4275             -200               0             -200               0
1.16447              -0.04444074       -12.19933        -70.36815        100.8122             -200               0             -200               0
1.17105                -0.045863       -12.30594        -69.86921        100.7773             -200               0             -200               0
1.17763              -0.04734533        -12.4134        -69.31873        100.2699             -200               0             -200               0
1.18421              -0.04888849        -12.5217        -68.73531        99.27784             -200               0             -200               0
1.19079               -0.0504905       -12.63085        -68.13485        97.81832             -200               0             -200               0
1.19737              -0.05215429       -12.74082        -67.52999        95.92633             -200               0             -200               0
1.20395              -0.05387558       -12.85163        -66.93024        93.64561             -200               0             -200               0
1.21053              -0.05565398       -12.96326        -66.34246        91.02231             -200               0             -200               0
1.21711              -0.05748819       -13.07572        -65.77137        88.10119             -200               0             -200               0
1.22368              -0.05937641       -13.18902        -65.22008        84.92368             -200               0             -200               0
1.23026              -0.06131661       -13.30316        -64.69051        81.52696             -200               0             -200               0
1.23684               -0.0633043       -13.41817        -64.18371        77.94391             -200               0             -200               0
1.24342              -0.06534001       -13.53406        -63.70018        74.20328             -200               0             -200               0
1.25                 -0.06741924       -13.65085        -63.23996        70.33012             -200               0             -200               0
1.25658              -0.06954099       -13.76857        -62.80284        66.34626             -200               0             -200               0
1.26316              -0.07170261       -13.88727        -62.38842        62.27073             -200               0             -200               0
1.26974              -0.07390416       -14.00697        -61.99618        58.12021             -200               0             -200               0
1.27632              -0.07614548       -14.12771        -61.62554        53.90938             -200               0             -200               0
1.28289              -0.07842451       -14.24954        -61.27588         49.6513             -200               0             -200               0
1.28947              -0.08074457       -14.37251        -60.94656        45.35762             -200               0             -200               0
1.29605              -0.08310443       -14.49667        -60.63692        41.03889             -200               0             -200               0
1.30263              -0.08550926       -14.62205        -60.34633         36.7047             -200               0             -200               0
1.30921              -0.08795884       -14.74872        -60.07415        32.36391             -200               0             -200               0
1.31579              -0.09046056       -14.87672        -59.81974        28.02473             -200               0             -200               0
1.32237               -0.0930161       -15.00609        -59.58247        23.69491             -200               0             -200               0
1.32895              -0.09563349       -15.13689        -59.36173         19.3818             -200               0             -200               0
1.33553              -0.09831846       -15.26914        -59.15686        15.09244             -200               0             -200               0
1.34211               -0.1010749       -15.40289        -58.96722        10.83362             -200               0             -200               0
1.34868               -0.1039139       -15.53818        -58.79215        6.611984             -200               0             -200               0
1.35526               -0.1068402       -15.67502        -58.63094        2.433999             -200               0             -200               0
1.36184               -0.1098617       -15.81345        -58.48286       -1.693965             -200               0             -200               0
1.36842               -0.1129877       -15.95348        -58.34712       -5.765645             -200               0             -200               0
1.375                 -0.1162245       -16.09511        -58.22289        -9.77489             -200               0             -200               0
1.38158               -0.1195806       -16.23838        -58.10925       -13.71567             -200               0             -200               0
1.38816               -0.1230629       -16.38327        -58.00519       -17.58214             -200               0             -200               0
1.39474               -0.1266777       -16.52978        -57.90964       -21.36868             -200               0             -200               0
1.40132                -0.130433       -16.67792        -57.82138          -25.07             -200               0             -200               0
1.40789               -0.1343315       -16.82768        -57.73911       -28.68124             -200               0             -200               0
1.41447               -0.1383812       -16.97904        -57.66139       -32.19812             -200               0             -200               0
1.42105               -0.1425849         -17.132        -57.58667       -35.61712             -200               0             -200               0
1.42763               -0.1469478       -17.28656        -57.51326       -38.93564             -200               0             -200               0
1.43421               -0.1514699       -17.44269        -57.43936       -42.15224             -200               0             -200               0
1.44079               -0.1561543        -17.6004         -57.3631       -45.26687             -200               0             -200               0
1.44737               -0.1610018       -17.75968        -57.28249       -48.28106             -200               0             -200               0
1.45395               -0.1660153       -17.92053        -57.19555       -51.19813             -200               0             -200               0
1.46053                -0.171193       -18.08296         -57.1003       -54.02337             -200               0             -200               0
1.46711               -0.1765353       -18.24698        -56.99483        -56.7641             -200               0             -200               0
1.47368               -0.1820402        -18.4126        -56.87734       -59.42973             -200               0             -200               0
1.48026               -0.1877089       -18.57984        -56.74627       -62.03158             -200               0             -200               0
1.48684               -0.1935397       -18.74874         -56.6003       -64.58271             -200               0             -200               0
1.49342               -0.1995329       -18.91933        -56.43844       -67.09757             -200               0             -200               0
1.5                   -0.2056876       -19.09164        -56.26006        -69.5916             -200               0             -200               0
1.50658               -0.2120052       -19.26574        -56.06495       -72.08061             -200               0             -200               0
1.51316               -0.2184844       -19.44167        -55.85327       -74.58038             -200               0             -200               0
1.51974               -0.2251277       -19.61949        -55.62558       -77.10599             -200               0             -200               0
1.52632               -0.2319393       -19.79927        -55.38278       -79.67141             -200               0             -200               0
1.53289                -0.238923       -19.98108        -55.12608       -82.28906             -200               0             -200               0
1.53947               -0.2460816       -20.16497        -54.85693       -84.96956             -200               0             -200               0
1.54605               -0.2534226       -20.35103        -54.57693        -87.7215             -200               0             -200               0
1.55263               -0.2609521       -20.53933        -54.28781       -90.55144             -200               0             -200               0
1.55921               -0.2686795       -20.72994         -53.9913       -93.46392             -200               0             -200               0
1.56579               -0.2766132       -20.92292        -53.68916        -96.4616             -200               0             -200               0
1.57237               -0.2847647       -21.11835        -53.38305       -99.54544             -200               0             -200               0
1.57895               -0.2931444       -21.31629        -53.07456       -102.7149             -200               0             -200               0
1.58553               -0.3017656        -21.5168        -52.76517       -105.9682             -200               0             -200               0
1.59211               -0.3106408       -21.71992         -52.4562       -109.3025             -200               0             -200               0
1.59868               -0.3197845       -21.92572        -52.14886       -112.7141             -200               0             -200               0
1.60526               -0.3292092       -22.13422        -51.84419       -116.1988             -200               0             -200               0
1.61184               -0.3389313       -22.34546        -51.54312       -119.7519             -200               0             -200               0
1.61842               -0.3489635       -22.55948        -51.24642       -123.3684             -200               0             -200               0
1.625                 -0.3593204       -22.77629        -50.95477        -127.043             -200               0             -200               0
1.63158               -0.3700164        -22.9959        -50.66869       -130.7703             -200               0             -200               0
1.63816               -0.3810642       -23.21834        -50.38862       -134.5452             -200               0             -200               0
1.64474               -0.3924762       -23.44361        -50.11491       -138.3621             -200               0             -200               0
1.65132               -0.4042654       -23.67171        -49.84781       -142.2161             -200               0             -200               0
1.65789               -0.4164422       -23.90264        -49.58749       -146.1019             -200               0             -200               0
1.66447               -0.4290174       -24.13642        -49.33404       -150.0146             -200               0             -200               0
1.67105               -0.4419994       -24.37305        -49.08749       -153.9494             -200               0             -200               0
1.67763               -0.4553976       -24.61252        -48.84783       -157.9017             -200               0             -200               0
1.68421                -0.469219       -24.85486        -48.61496       -161.8671             -200               0             -200               0
1.69079               -0.4834696       -25.10008        -48.38875       -165.8413             -200               0             -200               0
1.69737               -0.4981571        -25.3482        -48.16901       -169.8203             -200               0             -200               0
1.70395               -0.5132864       -25.59926        -47.95552       -173.8002             -200               0             -200               0
1.71053                -0.528861       -25.85331        -47.74799       -177.7774             -200               0             -200               0
1.71711                -0.544888       -26.11038        -47.54612        178.2515             -200               0             -200               0
1.72368               -0.5613713       -26.37056        -47.34956        174.2897             -200               0             -200               0
1.73026               -0.5783181       -26.63391        -47.15791        170.3402             -200               0             -200               0
1.73684               -0.5957339       -26.90052        -46.97074        166.4056             -200               0             -200               0
1.74342               -0.6136254        -27.1705         -46.7876        162.4885             -200               0             -200               0
1.75                  -0.6320032       -27.44396          -46.608        158.5908             -200               0             -200               0
1.75658               -0.6508765       -27.72102         -46.4314        154.7145             -200               0             -200               0
1.76316               -0.6702569       -28.00182        -46.25727         150.861             -200               0             -200               0
1.76974               -0.6901588       -28.28649        -46.08503        147.0314             -200               0             -200               0
1.77632               -0.7105991        -28.5752        -45.91408        143.2266             -200               0             -200               0
1.78289               -0.7315969       -28.86811        -45.74383        139.4468             -200               0             -200               0
1.78947               -0.7531735       -29.16537        -45.57365         135.692             -200               0             -200               0
1.79605               -0.7753541       -29.46715        -45.40294        131.9617             -200               0             -200               0
1.80263               -0.7981657       -29.77362        -45.23107        128.2548             -200               0             -200               0
1.80921                -0.821638       -30.08495        -45.05746          124.57             -200               0             -200               0
1.81579               -0.8458051        -30.4013        -44.88153        120.9054             -200               0             -200               0
1.82237               -0.8707017       -30.72282        -44.70273        117.2587             -200               0             -200               0
1.82895               -0.8963669       -31.04968        -44.52056         113.627             -200               0             -200               0
1.83553               -0.9228418       -31.38201        -44.33457        110.0073             -200               0             -200               0
1.84211               -0.9501695       -31.71996        -44.14435         106.396             -200               0             -200               0
1.84868                -0.978395       -32.06365        -43.94958        102.7894             -200               0             -200               0
1.85526                -1.007566        -32.4132        -43.74999        99.18323             -200               0             -200               0
1.86184                -1.037734       -32.76871         -43.5454        95.57339             -200               0             -200               0
1.86842                -1.068946       -33.13027         -43.3357         91.9555             -200               0             -200               0
1.875                  -1.101255       -33.49799        -43.12086        88.32515             -200               0             -200               0
1.88158                -1.134714       -33.87192        -42.90093          84.678             -200               0             -200               0
1.88816                -1.169377       -34.25214        -42.67605        81.00979             -200               0             -200               0
1.89474                -1.205296       -34.63871        -42.44641        77.31644             -200               0             -200               0
1.90132                -1.242529       -35.03167        -42.21228        73.59412             -200               0             -200               0
1.90789                 -1.28113        -35.4311        -41.97398        69.83928             -200               0             -200               0
1.91447                -1.321153       -35.83703         -41.7319        66.04868             -200               0             -200               0
1.92105                -1.362657       -36.24953        -41.48646        62.21945             -200               0             -200               0
1.92763                -1.405697       -36.66864         -41.2381         58.3491             -200               0             -200               0
1.93421                -1.450332       -37.09443        -40.98731        54.43552             -200               0             -200               0
1.94079                -1.496622       -37.52697        -40.73459        50.47699             -200               0             -200               0
1.94737                -1.544628       -37.96636        -40.48043        46.47216             -200               0             -200               0
1.95395                -1.594413       -38.41267        -40.22535        42.42005             -200               0             -200               0
1.96053                -1.646042       -38.86603        -39.96984        38.32002             -200               0             -200               0
1.96711                -1.699586       -39.32656         -39.7144        34.17176             -200               0             -200               0
1.97368                -1.755118       -39.79441        -39.45949        29.97524             -200               0             -200               0
1.98026                -1.812715       -40.26975        -39.20558        25.73069             -200               0             -200               0
1.98684                -1.872464       -40.75274         -38.9531        21.43857             -200               0             -200               0
1.99342                -1.934453        -41.2436        -38.70246        17.09956             -200               0             -200               0
2                       -1.99878       -41.74253        -38.45405        12.71449             -200               0             -200               0
2.00658                -2.065553       -42.24976        -38.20822        8.284364             -200               0             -200               0
2.01316                -2.134886       -42.76554        -37.96531        3.810283             -200               0             -200               0
2.01974                -2.206905        -43.2901        -37.72564      -0.7065423             -200               0             -200               0
2.02632                -2.281748        -43.8237        -37.48947       -5.264827             -200               0             -200               0
2.03289                -2.359563        -44.3666        -37.25708       -9.863228             -200               0             -200               0
2.03947                -2.440514       -44.91903         -37.0287       -14.50035             -200               0             -200               0
2.04605                -2.524777       -45.48123        -36.80455        -19.1748             -200               0             -200               0
2.05263                -2.612543        -46.0534        -36.58481       -23.88513             -200               0             -200               0
2.05921                 -2.70402       -46.63574        -36.36967       -28.62992             -200               0             -200               0
2.06579                -2.799431       -47.22841        -36.15927       -33.40774             -200               0             -200               0
2.07237                -2.899016       -47.83151        -35.95377       -38.21717             -200               0             -200               0
2.07895                -3.003035       -48.44511        -35.75327       -43.05682             -200               0             -200               0
2.08553                -3.111767       -49.06921         -35.5579       -47.92532             -200               0             -200               0
2.09211                -3.225508       -49.70376        -35.36775       -52.82132             -200               0             -200               0
2.09868                -3.344577       -50.34861        -35.18291       -57.74351             -200               0             -200               0
2.10526                -3.469314       -51.00354        -35.00345       -62.69061             -200               0             -200               0
2.11184                -3.600079       -51.66823        -34.82944       -67.66137             -200               0             -200               0
2.11842                -3.737259       -52.34224        -34.66092       -72.65457             -200               0             -200               0
2.125                   -3.88126       -53.02504        -34.49796       -77.66904             -200               0             -200               0
2.13158                -4.032522       -53.71594         -34.3406       -82.70363             -200               0             -200               0
2.13816                -4.191502       -54.41411        -34.18887       -87.75724             -200               0             -200               0
2.14474                -4.358696       -55.11857        -34.04279       -92.82879             -200               0             -200               0
2.15132                -4.534624       -55.82816        -33.90241       -97.91723             -200               0             -200               0
2.15789                -4.719844       -56.54155        -33.76773       -103.0216             -200               0             -200               0
2.16447                -4.914947       -57.25716        -33.63877       -108.1408             -200               0             -200               0
2.17105                 -5.12057       -57.97318        -33.51556       -113.2741             -200               0             -200               0
2.17763                -5.337387       -58.68755         -33.3981       -118.4203             -200               0             -200               0
2.18421                -5.566128        -59.3979         -33.2864       -123.5788             -200               0             -200               0
2.19079                -5.807575       -60.10149        -33.18046       -128.7485             -200               0             -200               0
2.19737                -6.062569       -60.79523         -33.0803       -133.9287             -200               0             -200               0
2.20395                -6.332026       -61.47553        -32.98592       -139.1185             -200               0             -200               0
2.21053                -6.616936       -62.13829        -32.89731       -144.3172             -200               0             -200               0
2.21711                -6.918383       -62.77877        -32.81449       -149.5239             -200               0             -200               0
2.22368                -7.237548        -63.3915        -32.73744       -154.7379             -200               0             -200               0
2.23026                -7.575731       -63.97008        -32.66618       -159.9585             -200               0             -200               0
2.23684                -7.934366       -64.50703        -32.60069       -165.1849             -200               0             -200               0
2.24342                -8.315038       -64.99354        -32.54099       -170.4164             -200               0             -200               0
2.25                   -8.719506       -65.41911        -32.48707       -175.6524             -200               0             -200               0
2.25658                 -9.14973       -65.77118        -32.43893         179.108             -200               0             -200               0
2.26316                -9.607892       -66.03456        -32.39657        173.8652             -200               0             -200               0
2.26974                -10.09643       -66.19071        -32.35998        168.6201             -200               0             -200               0
2.27632                -10.61804       -66.21671        -32.32918        163.3733             -200               0             -200               0
2.28289                -11.17572       -66.08402        -32.30415        158.1255             -200               0             -200               0
2.28947                -11.77273       -65.75657         -32.2849        152.8772             -200               0             -200               0