! TOUCHSTONE file generated by CST MICROWAVE STUDIO
! Date and time: Tue Mar 18 00:01:42 2025
! Project name: oblique.cst
! Parameters = {Tilt=30; Fracture=1; B=12.5; D=160; F=25; Feed=2.85625; L=100; M=30; R=0.384908; S=1; Theta=90; length=57.125; wave=114.25}
! Header version: 2024
! Port assignment regex: !\s*Touchstone port\s*([0-9]+)\s*=\s*(CST MWS port|CST DES external port|CST DES block port)\s*(.+)\s* \(\"(.*)\"\)(\s*mode\s*([0-9]+))?.*
! Touchstone port assignment:
! Touchstone port 1 = CST MWS port 1 ("")
! Touchstone port 2 = CST MWS port 2 ("")
# GHz S DB R 50
1                    -0.02174826       -9.791047        -65.09445        163.9119             -200               0             -200               0
1.00662              -0.02228473       -9.877456        -65.16306        157.6976             -200               0             -200               0
1.01325              -0.02279123       -9.964616        -65.26924        151.5872             -200               0             -200               0
1.01987              -0.02327444       -10.05259        -65.41504        145.5887             -200               0             -200               0
1.02649              -0.02373867       -10.14144        -65.60298        139.7129             -200               0             -200               0
1.03311              -0.02419291       -10.23121        -65.83603        133.9742             -200               0             -200               0
1.03974              -0.02464483       -10.32194         -66.1178        128.3921             -200               0             -200               0
1.04636              -0.02510293       -10.41367        -66.45257        122.9923             -200               0             -200               0
1.05298              -0.02557786       -10.50642        -66.84546        117.8092             -200               0             -200               0
1.0596               -0.02607967       -10.60021        -67.30254        112.8896             -200               0             -200               0
1.06623              -0.02661801       -10.69504        -67.83095        108.2975             -200               0             -200               0
1.07285              -0.02720236       -10.79091        -68.43888        104.1226             -200               0             -200               0
1.07947              -0.02784309        -10.8878        -69.13532         100.492             -200               0             -200               0
1.08609              -0.02854814       -10.98568        -69.92899        97.58961             -200               0             -200               0
1.09272              -0.02932459       -11.08453        -70.82556         95.6848             -200               0             -200               0
1.09934              -0.03018048        -11.1843        -71.82061        95.17151             -200               0             -200               0
1.10596              -0.03111917       -11.28496        -72.88352        96.60424             -200               0             -200               0
1.11258              -0.03214586       -11.38644        -73.92504        100.6622             -200               0             -200               0
1.11921              -0.03326206        -11.4887        -74.75316        107.8418             -200               0             -200               0
1.12583              -0.03446947        -11.5917        -75.08211        117.6667             -200               0             -200               0
1.13245              -0.03576555       -11.69537        -74.70943        128.0879             -200               0             -200               0
1.13907              -0.03714979       -11.79967        -73.72392        136.6192             -200               0             -200               0
1.1457               -0.03861687       -11.90456        -72.40727        142.1049             -200               0             -200               0
1.15232              -0.04016235          -12.01        -71.00064        144.7425             -200               0             -200               0
1.15894              -0.04177993       -12.11597        -69.63248        145.1972             -200               0             -200               0
1.16556              -0.04346152       -12.22243        -68.35338        144.0917             -200               0             -200               0
1.17219              -0.04520028       -12.32939        -67.17609         141.887             -200               0             -200               0
1.17881              -0.04698739       -12.43683        -66.09783         138.902             -200               0             -200               0
1.18543              -0.04881419       -12.54478        -65.11047        135.3542             -200               0             -200               0
1.19205              -0.05067326       -12.65325        -64.20473        131.3939             -200               0             -200               0
1.19868              -0.05255352       -12.76228        -63.37177        127.1265             -200               0             -200               0
1.2053               -0.05444935        -12.8719        -62.60376        122.6276             -200               0             -200               0
1.21192              -0.05635518       -12.98218        -61.89391        117.9527             -200               0             -200               0
1.21854              -0.05826313       -13.09317        -61.23645        113.1431             -200               0             -200               0
1.22517              -0.06017056       -13.20494        -60.62645        108.2307             -200               0             -200               0
1.23179              -0.06207381       -13.31756        -60.05974          103.24             -200               0             -200               0
1.23841              -0.06397182       -13.43112        -59.53274        98.19071             -200               0             -200               0
1.24503              -0.06586572        -13.5457         -59.0424        93.09861             -200               0             -200               0
1.25166              -0.06775758       -13.66137         -58.5861         87.9768             -200               0             -200               0
1.25828              -0.06965096       -13.77822        -58.16157        82.83628             -200               0             -200               0
1.2649               -0.07155222       -13.89633        -57.76683        77.68648             -200               0             -200               0
1.27152              -0.07346765       -14.01576        -57.40017        72.53564             -200               0             -200               0
1.27815              -0.07540502       -14.13658        -57.06007        67.39112             -200               0             -200               0
1.28477              -0.07737594       -14.25886        -56.74522        62.25965             -200               0             -200               0
1.29139              -0.07939026       -14.38263        -56.45442        57.14743             -200               0             -200               0
1.29801               -0.0814603       -14.50793        -56.18662        52.06038             -200               0             -200               0
1.30464              -0.08359834        -14.6348        -55.94086        47.00419             -200               0             -200               0
1.31126              -0.08581418       -14.76325        -55.71627        41.98446             -200               0             -200               0
1.31788              -0.08812054       -14.89329        -55.51205        37.00675             -200               0             -200               0
1.3245               -0.09053087        -15.0249        -55.32744        32.07668             -200               0             -200               0
1.33113              -0.09305496       -15.15807        -55.16173        27.19998             -200               0             -200               0
1.33775              -0.09570129       -15.29278        -55.01421        22.38255             -200               0             -200               0
1.34437              -0.09848042         -15.429        -54.88418        17.63052             -200               0             -200               0
1.35099               -0.1013989       -15.56668        -54.77093        12.95025             -200               0             -200               0
1.35762               -0.1044625       -15.70578        -54.67372        8.348401             -200               0             -200               0
1.36424               -0.1076755       -15.84625        -54.59175        3.831916             -200               0             -200               0
1.37086               -0.1110392       -15.98804        -54.52414      -0.5919565             -200               0             -200               0
1.37748               -0.1145557       -16.13111        -54.46993         -4.9157             -200               0             -200               0
1.38411                -0.118222       -16.27542        -54.42802       -9.131568             -200               0             -200               0
1.39073               -0.1220362       -16.42092        -54.39719       -13.23167             -200               0             -200               0
1.39735               -0.1259931       -16.56759        -54.37602       -17.20811             -200               0             -200               0
1.40397               -0.1300881        -16.7154        -54.36287       -21.05312             -200               0             -200               0
1.4106                -0.1343129       -16.86433        -54.35591       -24.75935             -200               0             -200               0
1.41722               -0.1386617       -17.01441        -54.35303       -28.32017             -200               0             -200               0
1.42384               -0.1431245       -17.16562        -54.35184       -31.73003             -200               0             -200               0
1.43046               -0.1476943       -17.31801        -54.34969       -34.98497             -200               0             -200               0
1.43709               -0.1523619       -17.47161        -54.34368        -38.0831             -200               0             -200               0
1.44371               -0.1571195       -17.62648        -54.33066       -41.02523             -200               0             -200               0
1.45033               -0.1619605       -17.78268        -54.30735       -43.81539             -200               0             -200               0
1.45695               -0.1668797        -17.9403        -54.27039       -46.46139             -200               0             -200               0
1.46358               -0.1718715       -18.09942        -54.21648       -48.97517             -200               0             -200               0
1.4702                 -0.176934       -18.26014        -54.14257       -51.37292             -200               0             -200               0
1.47682               -0.1820656       -18.42257        -54.04595       -53.67492             -200               0             -200               0
1.48344               -0.1872692       -18.58683        -53.92449       -55.90508             -200               0             -200               0
1.49007               -0.1925471       -18.75302        -53.77674       -58.08999             -200               0             -200               0
1.49669               -0.1979064       -18.92128        -53.60206       -60.25781             -200               0             -200               0
1.50331               -0.2033537       -19.09172        -53.40063       -62.43694             -200               0             -200               0
1.50993               -0.2089003       -19.26445        -53.17344       -64.65458             -200               0             -200               0
1.51656               -0.2145583       -19.43957        -52.92223       -66.93559             -200               0             -200               0
1.52318               -0.2203434       -19.61719        -52.64934       -69.30143             -200               0             -200               0
1.5298                -0.2262713        -19.7974        -52.35753       -71.76955             -200               0             -200               0
1.53642                 -0.23236       -19.98026        -52.04983       -74.35315             -200               0             -200               0
1.54305               -0.2386281       -20.16586         -51.7294       -77.06114             -200               0             -200               0
1.54967                -0.245095       -20.35423        -51.39935       -79.89852             -200               0             -200               0
1.55629               -0.2517806       -20.54541        -51.06266       -82.86683             -200               0             -200               0
1.56291               -0.2587055       -20.73942        -50.72208       -85.96465             -200               0             -200               0
1.56954               -0.2658894       -20.93627        -50.38013       -89.18829             -200               0             -200               0
1.57616               -0.2733501       -21.13594        -50.03901       -92.53223             -200               0             -200               0
1.58278               -0.2811052       -21.33842        -49.70065       -95.98968             -200               0             -200               0
1.5894                 -0.289172       -21.54367        -49.36671         -99.553             -200               0             -200               0
1.59603               -0.2975635       -21.75165        -49.03856        -103.214             -200               0             -200               0
1.60265               -0.3062923       -21.96231        -48.71737       -106.9642             -200               0             -200               0
1.60927               -0.3153675       -22.17561        -48.40406        -110.795             -200               0             -200               0
1.61589               -0.3247978       -22.39147        -48.09938       -114.6982             -200               0             -200               0
1.62252               -0.3345865       -22.60987        -47.80393       -118.6652             -200               0             -200               0
1.62914               -0.3447376       -22.83073        -47.51815       -122.6883             -200               0             -200               0
1.63576               -0.3552503       -23.05403        -47.24236       -126.7595             -200               0             -200               0
1.64238               -0.3661225       -23.27973        -46.97677       -130.8715             -200               0             -200               0
1.64901                -0.377351       -23.50782        -46.72153       -135.0171             -200               0             -200               0
1.65563               -0.3889283        -23.7383        -46.47666       -139.1895             -200               0             -200               0
1.66225               -0.4008463       -23.97119        -46.24214       -143.3821             -200               0             -200               0
1.66887               -0.4130999       -24.20653         -46.0179       -147.5886             -200               0             -200               0
1.6755                  -0.42568       -24.44437        -45.80377        -151.803             -200               0             -200               0
1.68212               -0.4385762       -24.68481        -45.59956       -156.0193             -200               0             -200               0
1.68874               -0.4517823       -24.92796        -45.40501        -160.232             -200               0             -200               0
1.69536               -0.4652913       -25.17394        -45.21983       -164.4357             -200               0             -200               0
1.70199               -0.4790985       -25.42291        -45.04366        -168.625             -200               0             -200               0
1.70861               -0.4932008       -25.67505        -44.87611        -172.795             -200               0             -200               0
1.71523               -0.5075991       -25.93055        -44.71671       -176.9408             -200               0             -200               0
1.72185               -0.5222959       -26.18964        -44.56495        178.9424             -200               0             -200               0
1.72848               -0.5372994       -26.45255        -44.42028         174.859             -200               0             -200               0
1.7351                -0.5526197       -26.71951        -44.28205        170.8133             -200               0             -200               0
1.74172               -0.5682737       -26.99079         -44.1496        166.8092             -200               0             -200               0
1.74834               -0.5842807       -27.26663        -44.02217        162.8504             -200               0             -200               0
1.75497               -0.6006642       -27.54731        -43.89893        158.9403             -200               0             -200               0
1.76159               -0.6174544       -27.83307        -43.77901        155.0818             -200               0             -200               0
1.76821               -0.6346848       -28.12418        -43.66145        151.2772             -200               0             -200               0
1.77483               -0.6523945       -28.42087        -43.54524        147.5284             -200               0             -200               0
1.78146               -0.6706239       -28.72338        -43.42933        143.8366             -200               0             -200               0
1.78808               -0.6894192       -29.03192        -43.31258        140.2023             -200               0             -200               0
1.7947                -0.7088315       -29.34669        -43.19385        136.6249             -200               0             -200               0
1.80132               -0.7289116       -29.66787        -43.07196        133.1033             -200               0             -200               0
1.80795               -0.7497156        -29.9956        -42.94574        129.6351             -200               0             -200               0
1.81457                -0.771299       -30.33001        -42.81402        126.2171             -200               0             -200               0
1.82119               -0.7937211       -30.67123        -42.67569        122.8447             -200               0             -200               0
1.82781               -0.8170403       -31.01933        -42.52972        119.5127             -200               0             -200               0
1.83444               -0.8413151       -31.37438        -42.37514        116.2146             -200               0             -200               0
1.84106                -0.866606       -31.73641        -42.21115        112.9432             -200               0             -200               0
1.84768               -0.8929697       -32.10546        -42.03707        109.6903             -200               0             -200               0
1.8543                -0.9204649       -32.48154        -41.85241        106.4473             -200               0             -200               0
1.86093               -0.9491485       -32.86465        -41.65686        103.2051             -200               0             -200               0
1.86755               -0.9790738       -33.25477        -41.45031        99.95435             -200               0             -200               0
1.87417                -1.010295        -33.6519        -41.23283        96.68588             -200               0             -200               0
1.88079                -1.042862       -34.05603        -41.00471        93.39071             -200               0             -200               0
1.88742                -1.076826       -34.46715        -40.76639         90.0603             -200               0             -200               0
1.89404                -1.112236       -34.88526         -40.5185         86.6868             -200               0             -200               0
1.90066                -1.149138       -35.31039        -40.26179        83.26314             -200               0             -200               0
1.90728                -1.187582       -35.74256         -39.9971        79.78315             -200               0             -200               0
1.91391                -1.227615       -36.18185         -39.7254        76.24162             -200               0             -200               0
1.92053                -1.269285       -36.62831        -39.44767        72.63434             -200               0             -200               0
1.92715                -1.312644       -37.08209        -39.16495        68.95805             -200               0             -200               0
1.93377                -1.357744       -37.54331        -38.87826        65.21045             -200               0             -200               0
1.9404                 -1.404643       -38.01214        -38.58863         61.3901             -200               0             -200               0
1.94702                -1.453404        -38.4888        -38.29703        57.49635             -200               0             -200               0
1.95364                -1.504092       -38.97352        -38.00441        53.52926             -200               0             -200               0
1.96026                -1.556786       -39.46658        -37.71166        49.48947             -200               0             -200               0
1.96689                -1.611566       -39.96825         -37.4196        45.37815             -200               0             -200               0
1.97351                -1.668529       -40.47887          -37.129        41.19689             -200               0             -200               0
1.98013                -1.727777       -40.99878        -36.84054        36.94763             -200               0             -200               0
1.98675                -1.789425       -41.52833        -36.55487        32.63254             -200               0             -200               0
1.99338                -1.853604       -42.06788        -36.27254        28.25401             -200               0             -200               0
2                      -1.920455       -42.61781        -35.99406        23.81456             -200               0             -200               0
2.00662                -1.990136       -43.17848        -35.71988        19.31679             -200               0             -200               0
2.01325                -2.062821       -43.75022        -35.45039        14.76335             -200               0             -200               0
2.01987                  -2.1387       -44.33337        -35.18594         10.1569             -200               0             -200               0
2.02649                -2.217979       -44.92821        -34.92682        5.500092             -200               0             -200               0
2.03311                -2.300884       -45.53499         -34.6733       0.7955185             -200               0             -200               0
2.03974                -2.387657       -46.15391         -34.4256       -3.954272             -200               0             -200               0
2.04636                 -2.47856       -46.78509        -34.18391       -8.746801             -200               0             -200               0
2.05298                -2.573872       -47.42859        -33.94838       -13.57967             -200               0             -200               0
2.0596                 -2.673892       -48.08438        -33.71915       -18.45056             -200               0             -200               0
2.06623                -2.778942       -48.75235        -33.49633       -23.35724             -200               0             -200               0
2.07285                -2.889355       -49.43227        -33.28001       -28.29759             -200               0             -200               0
2.07947                -3.005492       -50.12379        -33.07026       -33.26955             -200               0             -200               0
2.08609                -3.127731       -50.82645        -32.86714       -38.27116             -200               0             -200               0
2.09272                -3.256468       -51.53964        -32.67069       -43.30056             -200               0             -200               0
2.09934                -3.392123       -52.26263        -32.48095       -48.35595             -200               0             -200               0
2.10596                -3.535138       -52.99447        -32.29794       -53.43563             -200               0             -200               0
2.11258                -3.685976       -53.73411        -32.12167       -58.53799             -200               0             -200               0
2.11921                -3.845123       -54.48026        -31.95215       -63.66145             -200               0             -200               0
2.12583                 -4.01309       -55.23146        -31.78938       -68.80456             -200               0             -200               0
2.13245                -4.190416       -55.98599        -31.63335       -73.96588             -200               0             -200               0
2.13907                -4.377667       -56.74195        -31.48406       -79.14407             -200               0             -200               0
2.1457                 -4.575439       -57.49712         -31.3415       -84.33784             -200               0             -200               0
2.15232                -4.784364       -58.24902        -31.20564       -89.54594             -200               0             -200               0
2.15894                -5.005108       -58.99482        -31.07648        -94.7672             -200               0             -200               0
2.16556                 -5.23838       -59.73135        -30.95399       -100.0005             -200               0             -200               0
2.17219                -5.484933       -60.45499        -30.83815       -105.2447             -200               0             -200               0
2.17881                 -5.74557       -61.16168        -30.72895       -110.4987             -200               0             -200               0
2.18543                -6.021151       -61.84676        -30.62636       -115.7616             -200               0             -200               0
2.19205                -6.312598       -62.50497        -30.53036       -121.0324             -200               0             -200               0
2.19868                  -6.6209       -63.13026        -30.44092         -126.31             -200               0             -200               0
2.2053                  -6.94713        -63.7157        -30.35803       -131.5937             -200               0             -200               0
2.21192                 -7.29244       -64.25328        -30.28167       -136.8824             -200               0             -200               0
2.21854                -7.658079        -64.7337         -30.2118       -142.1754             -200               0             -200               0
2.22517                  -8.0454       -65.14602        -30.14843       -147.4717             -200               0             -200               0
2.23179                -8.455859       -65.47746        -30.09151       -152.7705             -200               0             -200               0
2.23841                 -8.89103       -65.71275        -30.04104        -158.071             -200               0             -200               0
2.24503                 -9.35259       -65.83369          -29.997       -163.3725             -200               0             -200               0
2.25166                -9.842313       -65.81832        -29.95937        -168.674             -200               0             -200               0
2.25828                -10.36203       -65.63995        -29.92814       -173.9748             -200               0             -200               0
2.2649                 -10.91357       -65.26591        -29.90328       -179.2741             -200               0             -200               0
2.27152                -11.49862       -64.65596        -29.88479        175.4289             -200               0             -200               0
2.27815                -12.11855        -63.7602        -29.87265        170.1349             -200               0             -200               0
2.28477                  -12.774       -62.51668        -29.86685        164.8447             -200               0             -200               0
2.29139                -13.46433       -60.84849        -29.86738        159.5591             -200               0             -200               0
2.29801                 -14.1866       -58.66107        -29.87422        154.2789             -200               0             -200               0