! TOUCHSTONE file generated by CST MICROWAVE STUDIO
! Date and time: Tue Mar 18 00:01:43 2025
! Project name: oblique.cst
! Parameters = {Tilt=30; Fracture=1; B=12.5; D=160; F=25; Feed=2.85625; L=100; M=30; R=0.384908; S=1; Theta=180; length=57.125; wave=114.25}
! Header version: 2024
! Port assignment regex: !\s*Touchstone port\s*([0-9]+)\s*=\s*(CST MWS port|CST DES external port|CST DES block port)\s*(.+)\s* \(\"(.*)\"\)(\s*mode\s*([0-9]+))?.*
! Touchstone port assignment:
! Touchstone port 1 = CST MWS port 1 ("")
! Touchstone port 2 = CST MWS port 2 ("")
# GHz S DB R 50
1                    -0.02174615       -9.791047        -65.09376        163.9213             -200               0             -200               0
1.00662              -0.02228259       -9.877457        -65.16227        157.7072             -200               0             -200               0
1.01325              -0.02278961       -9.964617        -65.26833        151.5969             -200               0             -200               0
1.01987               -0.0232723       -10.05259        -65.41402        145.5985             -200               0             -200               0
1.02649                -0.023737       -10.14144        -65.60183        139.7228             -200               0             -200               0
1.03311              -0.02419072       -10.23121        -65.83474        133.9842             -200               0             -200               0
1.03974              -0.02464214       -10.32194        -66.11636        128.4022             -200               0             -200               0
1.04636               -0.0251007       -10.41367        -66.45095        123.0024             -200               0             -200               0
1.05298              -0.02557563       -10.50643        -66.84364        117.8192             -200               0             -200               0
1.0596               -0.02607741       -10.60022        -67.30049        112.8994             -200               0             -200               0
1.06623               -0.0266157       -10.69505        -67.82863        108.3071             -200               0             -200               0
1.07285              -0.02720006       -10.79092        -68.43626        104.1316             -200               0             -200               0
1.07947              -0.02784073       -10.88781        -69.13233        100.5001             -200               0             -200               0
1.08609              -0.02854519       -10.98569        -69.92558        97.59634             -200               0             -200               0
1.09272              -0.02932218       -11.08454        -70.82165        95.68927             -200               0             -200               0
1.09934              -0.03017751       -11.18431        -71.81615        95.17233             -200               0             -200               0
1.10596              -0.03111775       -11.28497        -72.87854        96.59923             -200               0             -200               0
1.11258              -0.03214385       -11.38645        -73.91976        100.6484             -200               0             -200               0
1.11921              -0.03326055       -11.48872        -74.74822        107.8166             -200               0             -200               0
1.12583              -0.03446798       -11.59171        -75.07854        117.6312             -200               0             -200               0
1.13245              -0.03576398       -11.69538        -74.70794        128.0486             -200               0             -200               0
1.13907              -0.03714771       -11.79969        -73.72426        136.5833             -200               0             -200               0
1.1457               -0.03861585       -11.90458        -72.40873        142.0759             -200               0             -200               0
1.15232               -0.0401613       -12.01002        -71.00261        144.7202             -200               0             -200               0
1.15894              -0.04177885       -12.11598        -69.63461        145.1805             -200               0             -200               0
1.16556              -0.04346097       -12.22245         -68.3555        144.0794             -200               0             -200               0
1.17219              -0.04519973        -12.3294         -67.1781         141.878             -200               0             -200               0
1.17881              -0.04698683       -12.43685        -66.09971        138.8956             -200               0             -200               0
1.18543              -0.04881365        -12.5448        -65.11221        135.3498             -200               0             -200               0
1.19205              -0.05067111       -12.65327        -64.20633        131.3911             -200               0             -200               0
1.19868              -0.05255297       -12.76229        -63.37324         127.125             -200               0             -200               0
1.2053               -0.05444877       -12.87192         -62.6051        122.6271             -200               0             -200               0
1.21192              -0.05635519       -12.98219        -61.89513         117.953             -200               0             -200               0
1.21854              -0.05826257       -13.09318        -61.23756        113.1441             -200               0             -200               0
1.22517              -0.06017012       -13.20495        -60.62745        108.2323             -200               0             -200               0
1.23179              -0.06207327       -13.31758        -60.06064        103.2421             -200               0             -200               0
1.23841               -0.0639713       -13.43114        -59.53354        98.19318             -200               0             -200               0
1.24503              -0.06586526       -13.54571        -59.04311        93.10142             -200               0             -200               0
1.25166              -0.06775658       -13.66138        -58.58673        87.97989             -200               0             -200               0
1.25828              -0.06965046       -13.77824        -58.16211        82.83961             -200               0             -200               0
1.2649               -0.07155061       -13.89634        -57.76729        77.68999             -200               0             -200               0
1.27152              -0.07346601       -14.01577        -57.40055        72.53929             -200               0             -200               0
1.27815              -0.07540498        -14.1366        -57.06038        67.39489             -200               0             -200               0
1.28477              -0.07737593       -14.25887        -56.74545        62.26348             -200               0             -200               0
1.29139              -0.07938971       -14.38264        -56.45458         57.1513             -200               0             -200               0
1.29801              -0.08145968       -14.50795        -56.18671        52.06426             -200               0             -200               0
1.30464              -0.08359609       -14.63482        -55.94088        47.00806             -200               0             -200               0
1.31126              -0.08581244       -14.76327        -55.71623        41.98828             -200               0             -200               0
1.31788               -0.0881198       -14.89331        -55.51194        37.01048             -200               0             -200               0
1.3245                -0.0905307       -15.02492        -55.32727         32.0803             -200               0             -200               0
1.33113               -0.0930542       -15.15809         -55.1615        27.20346             -200               0             -200               0
1.33775              -0.09570047        -15.2928        -55.01392        22.38586             -200               0             -200               0
1.34437              -0.09848009       -15.42902        -54.88383        17.63362             -200               0             -200               0
1.35099               -0.1013992        -15.5667        -54.77053        12.95312             -200               0             -200               0
1.35762               -0.1044622        -15.7058        -54.67327        8.350994             -200               0             -200               0
1.36424               -0.1076762       -15.84627        -54.59124        3.834199             -200               0             -200               0
1.37086               -0.1110398       -15.98806        -54.52359      -0.5900182             -200               0             -200               0
1.37748               -0.1145558       -16.13113        -54.46933       -4.914144             -200               0             -200               0
1.38411               -0.1182221       -16.27544        -54.42739       -9.130433             -200               0             -200               0
1.39073               -0.1220369       -16.42094        -54.39653         -13.231             -200               0             -200               0
1.39735               -0.1259944       -16.56761        -54.37533       -17.20792             -200               0             -200               0
1.40397               -0.1300894       -16.71541        -54.36217       -21.05347             -200               0             -200               0
1.4106                -0.1343146       -16.86436         -54.3552       -24.76027             -200               0             -200               0
1.41722                -0.138663       -17.01442        -54.35231       -28.32168             -200               0             -200               0
1.42384               -0.1431264       -17.16564        -54.35113       -31.73215             -200               0             -200               0
1.43046               -0.1476958       -17.31803        -54.34901       -34.98771             -200               0             -200               0
1.43709               -0.1523641       -17.47163        -54.34303       -38.08646             -200               0             -200               0
1.44371               -0.1571216        -17.6265        -54.33007       -41.02919             -200               0             -200               0
1.45033               -0.1619623       -17.78269        -54.30683       -43.81993             -200               0             -200               0
1.45695               -0.1668813       -17.94031        -54.26995       -46.46646             -200               0             -200               0
1.46358               -0.1718734       -18.09942        -54.21614       -48.98068             -200               0             -200               0
1.4702                -0.1769354       -18.26014        -54.14233       -51.37878             -200               0             -200               0
1.47682               -0.1820683       -18.42257        -54.04584       -53.68103             -200               0             -200               0
1.48344               -0.1872704       -18.58682         -53.9245       -55.91131             -200               0             -200               0
1.49007               -0.1925483       -18.75302        -53.77689        -58.0962             -200               0             -200               0
1.49669                -0.197907       -18.92128        -53.60233       -60.26388             -200               0             -200               0
1.50331               -0.2033537       -19.09172        -53.40102       -62.44272             -200               0             -200               0
1.50993               -0.2089009       -19.26445        -53.17395       -64.65996             -200               0             -200               0
1.51656               -0.2145583       -19.43957        -52.92284       -66.94046             -200               0             -200               0
1.52318               -0.2203435       -19.61719        -52.65004       -69.30569             -200               0             -200               0
1.5298                -0.2262713        -19.7974         -52.3583       -71.77316             -200               0             -200               0
1.53642               -0.2323589       -19.98026        -52.05066       -74.35604             -200               0             -200               0
1.54305                -0.238627       -20.16586        -51.73027        -77.0633             -200               0             -200               0
1.54967               -0.2450937       -20.35423        -51.40024       -79.89995             -200               0             -200               0
1.55629               -0.2517792       -20.54541        -51.06356       -82.86752             -200               0             -200               0
1.56291                -0.258704       -20.73942        -50.72298       -85.96463             -200               0             -200               0
1.56954               -0.2658869       -20.93627        -50.38101       -89.18758             -200               0             -200               0
1.57616               -0.2733479       -21.13595        -50.03986       -92.53088             -200               0             -200               0
1.58278               -0.2811033       -21.33843        -49.70147       -95.98773             -200               0             -200               0
1.5894                -0.2891695       -21.54368        -49.36748       -99.55049             -200               0             -200               0
1.59603               -0.2975609       -21.75167        -49.03929        -103.211             -200               0             -200               0
1.60265                 -0.30629       -21.96233        -48.71804       -106.9607             -200               0             -200               0
1.60927               -0.3153647       -22.17562        -48.40466       -110.7911             -200               0             -200               0
1.61589               -0.3247952        -22.3915        -48.09993       -114.6939             -200               0             -200               0
1.62252               -0.3345845       -22.60989        -47.80441       -118.6607             -200               0             -200               0
1.62914               -0.3447365       -22.83076        -47.51855       -122.6834             -200               0             -200               0
1.63576               -0.3552491       -23.05406        -47.24269       -126.7544             -200               0             -200               0
1.64238               -0.3661218       -23.27976        -46.97703       -130.8662             -200               0             -200               0
1.64901                 -0.37735       -23.50785        -46.72171       -135.0117             -200               0             -200               0
1.65563               -0.3889273       -23.73833        -46.47677        -139.184             -200               0             -200               0
1.66225               -0.4008475       -23.97122        -46.24218       -143.3765             -200               0             -200               0
1.66887               -0.4131007       -24.20656        -46.01785        -147.583             -200               0             -200               0
1.6755                -0.4256807        -24.4444        -45.80364       -151.7973             -200               0             -200               0
1.68212               -0.4385777       -24.68484        -45.59936       -156.0137             -200               0             -200               0
1.68874               -0.4517842       -24.92799        -45.40474       -160.2265             -200               0             -200               0
1.69536               -0.4652934       -25.17397        -45.21948       -164.4303             -200               0             -200               0
1.70199               -0.4791006       -25.42294        -45.04324       -168.6198             -200               0             -200               0
1.70861               -0.4932039       -25.67507        -44.87561         -172.79             -200               0             -200               0
1.71523               -0.5076021       -25.93058        -44.71614        -176.936             -200               0             -200               0
1.72185               -0.5222997       -26.18967        -44.56432        178.9469             -200               0             -200               0
1.72848                -0.537303       -26.45257        -44.41958        174.8632             -200               0             -200               0
1.7351                -0.5526241       -26.71953         -44.2813        170.8171             -200               0             -200               0
1.74172               -0.5682778        -26.9908        -44.14879        166.8126             -200               0             -200               0
1.74834               -0.5842845       -27.26664         -44.0213        162.8534             -200               0             -200               0
1.75497               -0.6006679       -27.54731        -43.89801        158.9428             -200               0             -200               0
1.76159               -0.6174579       -27.83308        -43.77804        155.0838             -200               0             -200               0
1.76821               -0.6346886       -28.12418        -43.66045        151.2786             -200               0             -200               0
1.77483               -0.6523978       -28.42087        -43.54422        147.5293             -200               0             -200               0
1.78146               -0.6706273       -28.72338        -43.42828        143.8369             -200               0             -200               0
1.78808               -0.6894229       -29.03192        -43.31152        140.2019             -200               0             -200               0
1.7947                -0.7088334       -29.34668        -43.19278        136.6239             -200               0             -200               0
1.80132               -0.7289139       -29.66785         -43.0709        133.1016             -200               0             -200               0
1.80795               -0.7497171       -29.99559         -42.9447        129.6328             -200               0             -200               0
1.81457               -0.7713002          -30.33        -42.81301        126.2141             -200               0             -200               0
1.82119               -0.7937215       -30.67122        -42.67472        122.8411             -200               0             -200               0
1.82781               -0.8170403       -31.01932        -42.52879        119.5085             -200               0             -200               0
1.83444               -0.8413149       -31.37436        -42.37427        116.2098             -200               0             -200               0
1.84106               -0.8666049        -31.7364        -42.21035        112.9378             -200               0             -200               0
1.84768               -0.8929689       -32.10545        -42.03636        109.6844             -200               0             -200               0
1.8543                 -0.920464       -32.48153        -41.85178         106.441             -200               0             -200               0
1.86093               -0.9491469       -32.86464        -41.65633        103.1984             -200               0             -200               0
1.86755               -0.9790719       -33.25477        -41.44987        99.94739             -200               0             -200               0
1.87417                -1.010293        -33.6519         -41.2325        96.67871             -200               0             -200               0
1.88079                -1.042859       -34.05603        -41.00448        93.38339             -200               0             -200               0
1.88742                -1.076823       -34.46716        -40.76627        90.05292             -200               0             -200               0
1.89404                -1.112233       -34.88527        -40.51848        86.67943             -200               0             -200               0
1.90066                -1.149136        -35.3104        -40.26187        83.25585             -200               0             -200               0
1.90728                 -1.18758       -35.74258        -39.99728        79.77601             -200               0             -200               0
1.91391                -1.227612       -36.18186        -39.72567        76.23469             -200               0             -200               0
1.92053                -1.269283       -36.62833        -39.44803        72.62766             -200               0             -200               0
1.92715                -1.312642       -37.08211        -39.16539        68.95168             -200               0             -200               0
1.93377                -1.357742       -37.54333        -38.87878        65.20443             -200               0             -200               0
1.9404                 -1.404641       -38.01217        -38.58921        61.38446             -200               0             -200               0
1.94702                -1.453402       -38.48883        -38.29767        57.49112             -200               0             -200               0
1.95364                -1.504091       -38.97355         -38.0051        53.52444             -200               0             -200               0
1.96026                -1.556786        -39.4666         -37.7124        49.48509             -200               0             -200               0
1.96689                -1.611567       -39.96828        -37.42038        45.37423             -200               0             -200               0
1.97351                -1.668529        -40.4789         -37.1298        41.19342             -200               0             -200               0
1.98013                -1.727778       -40.99881        -36.84137        36.94461             -200               0             -200               0
1.98675                -1.789426       -41.52836        -36.55572        32.62997             -200               0             -200               0
1.99338                -1.853605       -42.06791         -36.2734        28.25188             -200               0             -200               0
2                      -1.920457       -42.61784        -35.99493        23.81287             -200               0             -200               0
2.00662                -1.990138       -43.17851        -35.72075        19.31552             -200               0             -200               0
2.01325                -2.062823       -43.75025        -35.45126         14.7625             -200               0             -200               0
2.01987                -2.138702        -44.3334        -35.18681        10.15645             -200               0             -200               0
2.02649                -2.217982       -44.92824        -34.92768        5.500029             -200               0             -200               0
2.03311                -2.300886       -45.53502        -34.67415       0.7958259             -200               0             -200               0
2.03974                 -2.38766       -46.15393        -34.42644       -3.953607             -200               0             -200               0
2.04636                -2.478563       -46.78511        -34.18473       -8.745794             -200               0             -200               0
2.05298                -2.573875       -47.42861        -33.94918       -13.57834             -200               0             -200               0
2.0596                 -2.673896        -48.0844        -33.71992       -18.44892             -200               0             -200               0
2.06623                -2.778944       -48.75237        -33.49708       -23.35531             -200               0             -200               0
2.07285                -2.889358       -49.43229        -33.28073       -28.29537             -200               0             -200               0
2.07947                -3.005494       -50.12381        -33.07095       -33.26706             -200               0             -200               0
2.08609                -3.127733       -50.82647        -32.86781       -38.26843             -200               0             -200               0
2.09272                 -3.25647       -51.53966        -32.67133       -43.29759             -200               0             -200               0
2.09934                -3.392127       -52.26264        -32.48156       -48.35276             -200               0             -200               0
2.10596                -3.535141       -52.99449        -32.29851       -53.43223             -200               0             -200               0
2.11258                -3.685979       -53.73413        -32.12221       -58.53439             -200               0             -200               0
2.11921                -3.845126       -54.48028        -31.95265       -63.65768             -200               0             -200               0
2.12583                -4.013093       -55.23147        -31.78985       -68.80061             -200               0             -200               0
2.13245                -4.190419       -55.98601        -31.63379       -73.96178             -200               0             -200               0
2.13907                 -4.37767       -56.74197        -31.48446       -79.13983             -200               0             -200               0
2.1457                 -4.575442       -57.49714        -31.34186       -84.33347             -200               0             -200               0
2.15232                -4.784367       -58.24903        -31.20597       -89.54146             -200               0             -200               0
2.15894                -5.005111       -58.99484        -31.07676       -94.76261             -200               0             -200               0
2.16556                -5.238383       -59.73136        -30.95424       -99.99579             -200               0             -200               0
2.17219                -5.484937       -60.45501        -30.83836       -105.2399             -200               0             -200               0
2.17881                -5.745574       -61.16169        -30.72912       -110.4939             -200               0             -200               0
2.18543                -6.021155       -61.84677        -30.62649       -115.7567             -200               0             -200               0
2.19205                -6.312601       -62.50498        -30.53045       -121.0274             -200               0             -200               0
2.19868                -6.620904       -63.13027        -30.44097        -126.305             -200               0             -200               0
2.2053                 -6.947134       -63.71571        -30.35804       -131.5887             -200               0             -200               0
2.21192                -7.292445       -64.25329        -30.28164       -136.8774             -200               0             -200               0
2.21854                -7.658084       -64.73369        -30.21173       -142.1704             -200               0             -200               0
2.22517                -8.045404       -65.14603        -30.14832       -147.4667             -200               0             -200               0
2.23179                -8.455863       -65.47745        -30.09136       -152.7655             -200               0             -200               0
2.23841                -8.891035       -65.71274        -30.04085       -158.0661             -200               0             -200               0
2.24503                -9.352595       -65.83367        -29.99677       -163.3675             -200               0             -200               0
2.25166                -9.842316        -65.8183         -29.9591       -168.6691             -200               0             -200               0
2.25828                -10.36203       -65.63991        -29.92783         -173.97             -200               0             -200               0
2.2649                 -10.91357       -65.26587        -29.90293       -179.2693             -200               0             -200               0
2.27152                -11.49862       -64.65592         -29.8844        175.4335             -200               0             -200               0
2.27815                -12.11855       -63.76017        -29.87222        170.1394             -200               0             -200               0
2.28477                  -12.774       -62.51663        -29.86638        164.8491             -200               0             -200               0
2.29139                -13.46432       -60.84844        -29.86687        159.5634             -200               0             -200               0
2.29801                -14.18659       -58.66103        -29.87368        154.2831             -200               0             -200               0