! TOUCHSTONE file generated by CST MICROWAVE STUDIO
! Date and time: Tue Mar 18 00:01:40 2025
! Project name: oblique.cst
! Parameters = {Tilt=30; Fracture=1; B=12.5; D=160; F=15; Feed=2.85625; L=100; M=50; R=0.384908; S=2; Theta=180; length=57.125; wave=114.25}
! Header version: 2024
! Port assignment regex: !\s*Touchstone port\s*([0-9]+)\s*=\s*(CST MWS port|CST DES external port|CST DES block port)\s*(.+)\s* \(\"(.*)\"\)(\s*mode\s*([0-9]+))?.*
! Touchstone port assignment:
! Touchstone port 1 = CST MWS port 1 ("")
! Touchstone port 2 = CST MWS port 2 ("")
# GHz S DB R 50
1                     -0.0205526       -9.801033        -68.14792        159.3956             -200               0             -200               0
1.00662              -0.02129954       -9.889165        -68.09958        153.7749             -200               0             -200               0
1.01325              -0.02205242       -9.977842         -68.0818        148.2536             -200               0             -200               0
1.01987               -0.0228112       -10.06709        -68.09491        142.8396             -200               0             -200               0
1.02649              -0.02357592       -10.15694        -68.13935        137.5429             -200               0             -200               0
1.03311              -0.02434686       -10.24741        -68.21569        132.3756             -200               0             -200               0
1.03974              -0.02512397       -10.33854        -68.32458        127.3528             -200               0             -200               0
1.04636              -0.02590909       -10.43035        -68.46671        122.4926             -200               0             -200               0
1.05298              -0.02670524       -10.52287        -68.64281        117.8173             -200               0             -200               0
1.0596               -0.02751225       -10.61613        -68.85349        113.3539             -200               0             -200               0
1.06623              -0.02833412       -10.71016        -69.09918        109.1356             -200               0             -200               0
1.07285              -0.02917338       -10.80496        -69.37987        105.2026             -200               0             -200               0
1.07947              -0.03003418       -10.90058        -69.69483        101.6036             -200               0             -200               0
1.08609              -0.03091908       -10.99702        -70.04212        98.39742             -200               0             -200               0
1.09272              -0.03183143        -11.0943        -70.41789        95.65347             -200               0             -200               0
1.09934              -0.03277658       -11.19242        -70.81535        93.45173             -200               0             -200               0
1.10596              -0.03375901        -11.2914        -71.22348        91.87952             -200               0             -200               0
1.11258              -0.03478005       -11.39125        -71.62534        91.02332             -200               0             -200               0
1.11921              -0.03584605       -11.49196        -71.99662        90.95236             -200               0             -200               0
1.12583              -0.03695745       -11.59353        -72.30515        91.69164             -200               0             -200               0
1.13245              -0.03812072       -11.69596        -72.51302        93.18702             -200               0             -200               0
1.13907              -0.03933593       -11.79925        -72.58265        95.27523             -200               0             -200               0
1.1457                 -0.040606       -11.90337        -72.48638         97.6818             -200               0             -200               0
1.15232              -0.04193329       -12.00834        -72.21568        100.0647             -200               0             -200               0
1.15894              -0.04331703       -12.11412        -71.78429        102.0923             -200               0             -200               0
1.16556              -0.04476116       -12.22073        -71.22313         103.516             -200               0             -200               0
1.17219              -0.04626226       -12.32814        -70.57045        104.2018             -200               0             -200               0
1.17881              -0.04782164       -12.43635        -69.86292        104.1194             -200               0             -200               0
1.18543              -0.04943893       -12.54536        -69.13058        103.3082             -200               0             -200               0
1.19205              -0.05111089       -12.65517        -68.39557        101.8447             -200               0             -200               0
1.19868              -0.05283703       -12.76576        -67.67295        99.81742             -200               0             -200               0
1.2053               -0.05461401       -12.87716         -66.9723        97.31323             -200               0             -200               0
1.21192              -0.05644032       -12.98937        -66.29929        94.41064             -200               0             -200               0
1.21854              -0.05831284       -13.10239        -65.65693        91.17754             -200               0             -200               0
1.22517              -0.06022925       -13.21626        -65.04652        87.67138             -200               0             -200               0
1.23179              -0.06218701       -13.33099        -64.46825        83.94015             -200               0             -200               0
1.23841              -0.06418403       -13.44661        -63.92168        80.02381             -200               0             -200               0
1.24503               -0.0662173       -13.56315        -63.40593        75.95568             -200               0             -200               0
1.25166              -0.06828807       -13.68066        -62.91998        71.76361             -200               0             -200               0
1.25828              -0.07039357       -13.79915        -62.46266        67.47105             -200               0             -200               0
1.2649                -0.0725319        -13.9187        -62.03281        63.09791             -200               0             -200               0
1.27152              -0.07470595       -14.03932        -61.62929        58.66122             -200               0             -200               0
1.27815              -0.07691566       -14.16108        -61.25099        54.17573             -200               0             -200               0
1.28477              -0.07916411       -14.28403        -60.89686        49.65437             -200               0             -200               0
1.29139              -0.08145225        -14.4082         -60.5659        45.10858             -200               0             -200               0
1.29801              -0.08378366       -14.53366        -60.25719        40.54862             -200               0             -200               0
1.30464              -0.08616449       -14.66044        -59.96985        35.98384             -200               0             -200               0
1.31126              -0.08859736        -14.7886        -59.70303        31.42287             -200               0             -200               0
1.31788              -0.09108891       -14.91817        -59.45596        26.87377             -200               0             -200               0
1.3245               -0.09364689        -15.0492        -59.22787        22.34417             -200               0             -200               0
1.33113              -0.09627556       -15.18172        -59.01802         17.8414             -200               0             -200               0
1.33775              -0.09898393       -15.31575        -58.82569        13.37256             -200               0             -200               0
1.34437               -0.1017794       -15.45134        -58.65015        8.944644             -200               0             -200               0
1.35099               -0.1046694       -15.58849        -58.49066        4.564523             -200               0             -200               0
1.35762               -0.1076604       -15.72722        -58.34646       0.2390601             -200               0             -200               0
1.36424               -0.1107625       -15.86755        -58.21675       -4.024889             -200               0             -200               0
1.37086               -0.1139797       -16.00947        -58.10069       -8.220461             -200               0             -200               0
1.37748               -0.1173221         -16.153        -57.99734       -12.34078             -200               0             -200               0
1.38411               -0.1207961       -16.29813        -57.90571         -16.379             -200               0             -200               0
1.39073               -0.1244048       -16.44485        -57.82468       -20.32836             -200               0             -200               0
1.39735               -0.1281575       -16.59317        -57.75304        -24.1822             -200               0             -200               0
1.40397               -0.1320553       -16.74306         -57.6894        -27.9342             -200               0             -200               0
1.4106                -0.1361038       -16.89452        -57.63225       -31.57839             -200               0             -200               0
1.41722               -0.1403054       -17.04754        -57.57991       -35.10948             -200               0             -200               0
1.42384                -0.144664       -17.20211        -57.53051       -38.52298             -200               0             -200               0
1.43046               -0.1491788       -17.35823        -57.48203       -41.81555             -200               0             -200               0
1.43709               -0.1538528        -17.5159        -57.43227       -44.98528             -200               0             -200               0
1.44371               -0.1586846        -17.6751        -57.37888       -48.03206             -200               0             -200               0
1.45033               -0.1636763       -17.83586        -57.31941       -50.95786             -200               0             -200               0
1.45695               -0.1688265       -17.99819        -57.25136        -53.7671             -200               0             -200               0
1.46358               -0.1741332       -18.16209        -57.17224       -56.46687             -200               0             -200               0
1.4702                 -0.179596       -18.32759        -57.07965       -59.06704             -200               0             -200               0
1.47682               -0.1852151       -18.49473         -56.9714       -61.58031             -200               0             -200               0
1.48344               -0.1909879       -18.66354        -56.84558         -64.022             -200               0             -200               0
1.49007               -0.1969165       -18.83407        -56.70069       -66.40966             -200               0             -200               0
1.49669               -0.2030008       -19.00635        -56.53569       -68.76257             -200               0             -200               0
1.50331               -0.2092395       -19.18046        -56.35004       -71.10094             -200               0             -200               0
1.50993               -0.2156383       -19.35645        -56.14381       -73.44523             -200               0             -200               0
1.51656               -0.2221953       -19.53439        -55.91755       -75.81522             -200               0             -200               0
1.52318               -0.2289179       -19.71433        -55.67234       -78.22933             -200               0             -200               0
1.5298                -0.2358103       -19.89636         -55.4097       -80.70395             -200               0             -200               0
1.53642               -0.2428772       -20.08055        -55.13145         -83.253             -200               0             -200               0
1.54305               -0.2501268       -20.26696        -54.83967       -85.88765             -200               0             -200               0
1.54967               -0.2575677       -20.45567        -54.53658       -88.61623             -200               0             -200               0
1.55629               -0.2652085       -20.64675        -54.22441       -91.44433             -200               0             -200               0
1.56291               -0.2730613       -20.84027        -53.90541       -94.37499             -200               0             -200               0
1.56954               -0.2811362       -21.03629        -53.58168       -97.40901             -200               0             -200               0
1.57616               -0.2894462       -21.23486        -53.25521       -100.5452             -200               0             -200               0
1.58278               -0.2980047       -21.43604        -52.92781       -103.7809             -200               0             -200               0
1.5894                -0.3068256       -21.63987         -52.6011       -107.1122             -200               0             -200               0
1.59603               -0.3159225        -21.8464        -52.27652        -110.534             -200               0             -200               0
1.60265               -0.3253106       -22.05565        -51.95531       -114.0408             -200               0             -200               0
1.60927                -0.335002       -22.26766        -51.63851       -117.6265             -200               0             -200               0
1.61589               -0.3450133       -22.48244        -51.32703       -121.2849             -200               0             -200               0
1.62252               -0.3553565       -22.70001        -51.02159       -125.0093             -200               0             -200               0
1.62914               -0.3660462       -22.92037        -50.72279       -128.7934             -200               0             -200               0
1.63576               -0.3770953       -23.14355        -50.43109       -132.6308             -200               0             -200               0
1.64238               -0.3885142       -23.36953        -50.14683        -136.515             -200               0             -200               0
1.64901               -0.4003146       -23.59831        -49.87028       -140.4401             -200               0             -200               0
1.65563               -0.4125062        -23.8299        -49.60158       -144.4001             -200               0             -200               0
1.66225               -0.4250992       -24.06431        -49.34081       -148.3893             -200               0             -200               0
1.66887                  -0.4381       -24.30153        -49.08799       -152.4022             -200               0             -200               0
1.6755                -0.4515172       -24.54157        -48.84305       -156.4336             -200               0             -200               0
1.68212               -0.4653562       -24.78445        -48.60588       -160.4785             -200               0             -200               0
1.68874                -0.479623       -25.03018        -48.37631       -164.5321             -200               0             -200               0
1.69536               -0.4943231       -25.27881        -48.15411         -168.59             -200               0             -200               0
1.70199               -0.5094605       -25.53037        -47.93902       -172.6477             -200               0             -200               0
1.70861               -0.5250409        -25.7849        -47.73073       -176.7013             -200               0             -200               0
1.71523               -0.5410668       -26.04247        -47.52887        179.2531             -200               0             -200               0
1.72185               -0.5575438       -26.30316        -47.33306         175.219             -200               0             -200               0
1.72848               -0.5744792       -26.56705        -47.14286        171.1998             -200               0             -200               0
1.7351                -0.5918783       -26.83423        -46.95779        167.1984             -200               0             -200               0
1.74172               -0.6097492       -27.10482        -46.77735        163.2177             -200               0             -200               0
1.74834               -0.6281009       -27.37895        -46.60098          159.26             -200               0             -200               0
1.75497               -0.6469436       -27.65674         -46.4281        155.3274             -200               0             -200               0
1.76159               -0.6662923       -27.93834        -46.25812        151.4217             -200               0             -200               0
1.76821               -0.6861628        -28.2239        -46.09038        147.5443             -200               0             -200               0
1.77483               -0.7065697       -28.51358        -45.92423         143.696             -200               0             -200               0
1.78146               -0.7275367       -28.80753        -45.75899        139.8774             -200               0             -200               0
1.78808               -0.7490857       -29.10593        -45.59397        136.0885             -200               0             -200               0
1.7947                -0.7712431       -29.40896        -45.42848        132.3289             -200               0             -200               0
1.80132                -0.794038       -29.71676        -45.26181        128.5976             -200               0             -200               0
1.80795               -0.8175019       -30.02951        -45.09329         124.893             -200               0             -200               0
1.81457                 -0.84167       -30.34738        -44.92227        121.2132             -200               0             -200               0
1.82119               -0.8665796       -30.67051        -44.74811        117.5557             -200               0             -200               0
1.82781                 -0.89227       -30.99906        -44.57024        113.9173             -200               0             -200               0
1.83444               -0.9187845       -31.33316        -44.38812        110.2946             -200               0             -200               0
1.84106               -0.9461678       -31.67295        -44.20131        106.6838             -200               0             -200               0
1.84768               -0.9744645       -32.01855         -44.0094        103.0805             -200               0             -200               0
1.8543                 -1.003724       -32.37006        -43.81209        99.48006             -200               0             -200               0
1.86093                -1.033996       -32.72757        -43.60915        95.87782             -200               0             -200               0
1.86755                -1.065331       -33.09119        -43.40047        92.26879             -200               0             -200               0
1.87417                -1.097782       -33.46099          -43.186        88.64802             -200               0             -200               0
1.88079                -1.131399       -33.83703        -42.96579        85.01058             -200               0             -200               0
1.88742                -1.166238       -34.21938           -42.74        81.35166             -200               0             -200               0
1.89404                -1.202352        -34.6081        -42.50884        77.66668             -200               0             -200               0
1.90066                -1.239794       -35.00322        -42.27263        73.95132             -200               0             -200               0
1.90728                -1.278621       -35.40481        -42.03173        70.20161             -200               0             -200               0
1.91391                -1.318887       -35.81292        -41.78658        66.41396             -200               0             -200               0
1.92053                -1.360646        -36.2276        -41.53764         62.5852             -200               0             -200               0
1.92715                -1.403957       -36.64891        -41.28545         58.7126             -200               0             -200               0
1.93377                -1.448877       -37.07691        -41.03053         54.7939             -200               0             -200               0
1.9404                 -1.495464       -37.51169        -40.77344        50.82725             -200               0             -200               0
1.94702                -1.543779       -37.95335        -40.51475        46.81127             -200               0             -200               0
1.95364                -1.593886       -38.40197        -40.25502        42.74498             -200               0             -200               0
1.96026                -1.645851       -38.85769         -39.9948        38.62777             -200               0             -200               0
1.96689                -1.699745       -39.32066        -39.73463        34.45943             -200               0             -200               0
1.97351                -1.755641       -39.79102        -39.47504        30.24001             -200               0             -200               0
1.98013                -1.813618       -40.26896        -39.21651        25.96992             -200               0             -200               0
1.98675                -1.873762       -40.75466        -38.95952        21.64976             -200               0             -200               0
1.99338                -1.936169       -41.24836         -38.7045        17.28037             -200               0             -200               0
2                      -2.000935       -41.75027        -38.45188        12.86277             -200               0             -200               0
2.00662                -2.068172       -42.26064        -38.20202        8.398136             -200               0             -200               0
2.01325                -2.137998       -42.77972        -37.95529        3.887753             -200               0             -200               0
2.01987                -2.210545       -43.30777          -37.712      -0.6669867             -200               0             -200               0
2.02649                -2.285954       -43.84506        -37.47245       -5.264622             -200               0             -200               0
2.03311                -2.364377       -44.39184        -37.23691       -9.903643             -200               0             -200               0
2.03974                -2.445987       -44.94837        -37.00561        -14.5825             -200               0             -200               0
2.04636                -2.530963       -45.51488        -36.77878       -19.29963             -200               0             -200               0
2.05298                -2.619504       -46.09159        -36.55661       -24.05345             -200               0             -200               0
2.0596                 -2.711824       -46.67868        -36.33927        -28.8424             -200               0             -200               0
2.06623                -2.808156       -47.27631        -36.12691       -33.66494             -200               0             -200               0
2.07285                -2.908745       -47.88459        -35.91967       -38.51953             -200               0             -200               0
2.07947                -3.013863       -48.50355        -35.71768       -43.40466             -200               0             -200               0
2.08609                -3.123794        -49.1332        -35.52103       -48.31888             -200               0             -200               0
2.09272                -3.238846       -49.77345        -35.32983       -53.26074             -200               0             -200               0
2.09934                -3.359345       -50.42414        -35.14414       -58.22884             -200               0             -200               0
2.10596                -3.485642       -51.08502        -34.96403       -63.22183             -200               0             -200               0
2.11258                -3.618109       -51.75573        -34.78957       -68.23839             -200               0             -200               0
2.11921                -3.757141       -52.43581        -34.62081       -73.27726             -200               0             -200               0
2.12583                -3.903159       -53.12467        -34.45778       -78.33718             -200               0             -200               0
2.13245                 -4.05661       -53.82158        -34.30052       -83.41697             -200               0             -200               0
2.13907                 -4.21797       -54.52566        -34.14907       -88.51549             -200               0             -200               0
2.1457                 -4.387742       -55.23588        -34.00343        -93.6316             -200               0             -200               0
2.15232                -4.566466       -55.95102        -33.86365       -98.76424             -200               0             -200               0
2.15894                -4.754713       -56.66964        -33.72972       -103.9124             -200               0             -200               0
2.16556                -4.953093        -57.3901        -33.60165        -109.075             -200               0             -200               0
2.17219                -5.162258       -58.11052        -33.47947       -114.2511             -200               0             -200               0
2.17881                -5.382908       -58.82872        -33.36317       -119.4398             -200               0             -200               0
2.18543                -5.615792       -59.54219        -33.25275       -124.6401             -200               0             -200               0
2.19205                -5.861717       -60.24811        -33.14822       -129.8512             -200               0             -200               0
2.19868                -6.121557       -60.94318        -33.04957       -135.0722             -200               0             -200               0
2.2053                 -6.396257       -61.62366        -32.95681       -140.3023             -200               0             -200               0
2.21192                -6.686845       -62.28523        -32.86993       -145.5406             -200               0             -200               0
2.21854                -6.994444       -62.92289        -32.78893       -150.7865             -200               0             -200               0
2.22517                -7.320286       -63.53087        -32.71381        -156.039             -200               0             -200               0
2.23179                -7.665726        -64.1024        -32.64455       -161.2976             -200               0             -200               0
2.23841                -8.032258       -64.62953        -32.58115       -166.5613             -200               0             -200               0
2.24503                -8.421541       -65.10289        -32.52362       -171.8296             -200               0             -200               0
2.25166                -8.835419       -65.51128        -32.47194       -177.1016             -200               0             -200               0
2.25828                -9.275945       -65.84123        -32.42611        177.6232             -200               0             -200               0
2.2649                  -9.74541       -66.07642        -32.38613        172.3456             -200               0             -200               0
2.27152                -10.24637       -66.19679        -32.35199        167.0663             -200               0             -200               0
2.27815                -10.78166        -66.1775        -32.32368        161.7858             -200               0             -200               0
2.28477                -11.35443        -65.9874        -32.30121         156.505             -200               0             -200               0
2.29139                -11.96806         -65.587        -32.28456        151.2244             -200               0             -200               0
2.29801                -12.62616       -64.92561        -32.27374        145.9446             -200               0             -200               0