! TOUCHSTONE file generated by CST MICROWAVE STUDIO
! Date and time: Tue Mar 18 00:02:09 2025
! Project name: oblique.cst
! Parameters = {Tilt=40; Fracture=1; B=10; D=160; F=5; Feed=2.85625; L=100; M=50; R=0.384908; S=2; Theta=90; length=57.125; wave=114.25}
! Header version: 2024
! Port assignment regex: !\s*Touchstone port\s*([0-9]+)\s*=\s*(CST MWS port|CST DES external port|CST DES block port)\s*(.+)\s* \(\"(.*)\"\)(\s*mode\s*([0-9]+))?.*
! Touchstone port assignment:
! Touchstone port 1 = CST MWS port 1 ("")
! Touchstone port 2 = CST MWS port 2 ("")
# GHz S DB R 50
1                    -0.02165085       -9.783897        -66.97443        171.1231             -200               0             -200               0
1.00658              -0.02237617       -9.870616        -66.92606        165.6182             -200               0             -200               0
1.01316              -0.02310059       -9.957925        -66.90807        160.2054             -200               0             -200               0
1.01974              -0.02382605       -10.04586        -66.92087        154.8925             -200               0             -200               0
1.02632              -0.02455382       -10.13444          -66.965        149.6892             -200               0             -200               0
1.03289              -0.02528636       -10.22371        -67.04111        144.6073             -200               0             -200               0
1.03947              -0.02602712       -10.31369           -67.15        139.6614             -200               0             -200               0
1.04605              -0.02677917       -10.40442        -67.29252         134.869             -200               0             -200               0
1.05263              -0.02754758       -10.49591         -67.4696        130.2519             -200               0             -200               0
1.05921              -0.02833667       -10.58818        -67.68213        125.8364             -200               0             -200               0
1.06579              -0.02915025       -10.68125        -67.93086        121.6549             -200               0             -200               0
1.07237              -0.02999386       -10.77512        -68.21624        117.7469             -200               0             -200               0
1.07895              -0.03087252       -10.86981        -68.53812        114.1611             -200               0             -200               0
1.08553               -0.0317905       -10.96531        -68.89532        110.9565             -200               0             -200               0
1.09211              -0.03275366       -11.06162        -69.28496        108.2044             -200               0             -200               0
1.09868              -0.03376446       -11.15873        -69.70143        105.9885             -200               0             -200               0
1.10526              -0.03482837       -11.25663        -70.13504         104.404             -200               0             -200               0
1.11184              -0.03594713       -11.35531         -70.5701        103.5504             -200               0             -200               0
1.11842              -0.03712538       -11.45475        -70.98303        103.5171             -200               0             -200               0
1.125                -0.03836438       -11.55492        -71.34101        104.3561             -200               0             -200               0
1.13158              -0.03966437       -11.65581        -71.60312        106.0422             -200               0             -200               0
1.13816              -0.04102657        -11.7574        -71.72598        108.4319             -200               0             -200               0
1.14474              -0.04245123       -11.85966        -71.67434        111.2476             -200               0             -200               0
1.15132              -0.04393698       -11.96257        -71.43304         114.115             -200               0             -200               0
1.15789              -0.04548236       -12.06613        -71.01296        116.6516             -200               0             -200               0
1.16447              -0.04708431        -12.1703        -70.44664        118.5599             -200               0             -200               0
1.17105              -0.04873959       -12.27509         -69.7768        119.6747             -200               0             -200               0
1.17763              -0.05044535       -12.38048        -69.04512        119.9544             -200               0             -200               0
1.18421              -0.05219704       -12.48648        -68.28572        119.4416             -200               0             -200               0
1.19079              -0.05399041       -12.59309        -67.52348        118.2226             -200               0             -200               0
1.19737              -0.05582091       -12.70031        -66.77504        116.3973             -200               0             -200               0
1.20395              -0.05768399       -12.80817        -66.05074         114.063             -200               0             -200               0
1.21053              -0.05957465       -12.91668        -65.35654        111.3065             -200               0             -200               0
1.21711              -0.06148981       -13.02588        -64.69544        108.2023             -200               0             -200               0
1.22368              -0.06342465       -13.13579        -64.06863        104.8126             -200               0             -200               0
1.23026              -0.06537623       -13.24645        -63.47611        101.1891             -200               0             -200               0
1.23684              -0.06734076       -13.35791        -62.91723        97.37426             -200               0             -200               0
1.24342              -0.06931758       -13.47022        -62.39097        93.40349             -200               0             -200               0
1.25                 -0.07130465       -13.58341        -61.89612        89.30607             -200               0             -200               0
1.25658              -0.07330202       -13.69756        -61.43139        85.10659             -200               0             -200               0
1.26316              -0.07530916        -13.8127        -60.99549        80.82583             -200               0             -200               0
1.26974              -0.07732839        -13.9289         -60.5872        76.48156             -200               0             -200               0
1.27632              -0.07936223       -14.04621        -60.20532        72.08913             -200               0             -200               0
1.28289              -0.08141364       -14.16468        -59.84875          67.662             -200               0             -200               0
1.28947              -0.08348678       -14.28436        -59.51645        63.21213             -200               0             -200               0
1.29605              -0.08558666       -14.40531        -59.20745        58.75027             -200               0             -200               0
1.30263              -0.08771881       -14.52756        -58.92085        54.28629             -200               0             -200               0
1.30921              -0.08988854       -14.65116        -58.65578        49.82933             -200               0             -200               0
1.31579              -0.09210419       -14.77613        -58.41146        45.38802             -200               0             -200               0
1.32237              -0.09437155       -14.90252        -58.18709        40.97062             -200               0             -200               0
1.32895              -0.09669712       -15.03033        -57.98194        36.58513             -200               0             -200               0
1.33553              -0.09908881        -15.1596        -57.79527        32.23942             -200               0             -200               0
1.34211               -0.1015527       -15.29033        -57.62631         27.9413             -200               0             -200               0
1.34868               -0.1040953       -15.42254        -57.47433         23.6986             -200               0             -200               0
1.35526               -0.1067248       -15.55621        -57.33851         19.5192             -200               0             -200               0
1.36184               -0.1094444       -15.69137          -57.218        15.41109             -200               0             -200               0
1.36842               -0.1122595         -15.828        -57.11187        11.38239             -200               0             -200               0
1.375                 -0.1151753       -15.96609         -57.0191        7.441298             -200               0             -200               0
1.38158               -0.1181938       -16.10564        -56.93855        3.596093             -200               0             -200               0
1.38816               -0.1213184       -16.24664        -56.86893      -0.1449631             -200               0             -200               0
1.39474               -0.1245505       -16.38909        -56.80878       -3.773737             -200               0             -200               0
1.40132               -0.1278907       -16.53298        -56.75646       -7.282399             -200               0             -200               0
1.40789               -0.1313385       -16.67832        -56.71008       -10.66365             -200               0             -200               0
1.41447               -0.1348953       -16.82509        -56.66755       -13.91102             -200               0             -200               0
1.42105               -0.1385574       -16.97331         -56.6265       -17.01924             -200               0             -200               0
1.42763                -0.142324       -17.12299        -56.58433       -19.98466             -200               0             -200               0
1.43421               -0.1461913       -17.27416        -56.53823       -22.80577             -200               0             -200               0
1.44079               -0.1501593       -17.42684        -56.48516       -25.48367             -200               0             -200               0
1.44737               -0.1542236       -17.58107        -56.42199       -28.02259             -200               0             -200               0
1.45395               -0.1583826       -17.73689        -56.34554       -30.43033             -200               0             -200               0
1.46053               -0.1626342       -17.89434        -56.25273       -32.71855             -200               0             -200               0
1.46711               -0.1669758       -18.05349        -56.14072        -34.9028             -200               0             -200               0
1.47368               -0.1714082        -18.2144        -56.00701       -37.00238             -200               0             -200               0
1.48026               -0.1759298       -18.37715        -55.84966       -39.03977             -200               0             -200               0
1.48684               -0.1805417        -18.5418        -55.66737       -41.03984             -200               0             -200               0
1.49342               -0.1852471       -18.70844        -55.45958        -43.0288             -200               0             -200               0
1.5                   -0.1900488       -18.87717        -55.22648       -45.03294             -200               0             -200               0
1.50658               -0.1949507       -19.04805        -54.96901       -47.07744             -200               0             -200               0
1.51316               -0.1999606        -19.2212        -54.68878       -49.18529             -200               0             -200               0
1.51974               -0.2050833       -19.39669        -54.38794       -51.37636             -200               0             -200               0
1.52632               -0.2103304       -19.57461        -54.06905        -53.6669             -200               0             -200               0
1.53289               -0.2157095       -19.75506        -53.73492       -56.06922             -200               0             -200               0
1.53947               -0.2212339       -19.93811        -53.38844       -58.59178             -200               0             -200               0
1.54605               -0.2269167       -20.12384        -53.03252       -61.23941             -200               0             -200               0
1.55263               -0.2327685       -20.31232        -52.66991       -64.01371             -200               0             -200               0
1.55921               -0.2388059       -20.50362        -52.30319        -66.9136             -200               0             -200               0
1.56579                -0.245044        -20.6978        -51.93472       -69.93579             -200               0             -200               0
1.57237               -0.2514982        -20.8949        -51.56657       -73.07531             -200               0             -200               0
1.57895               -0.2581835       -21.09497        -51.20055       -76.32593             -200               0             -200               0
1.58553               -0.2651161       -21.29804        -50.83822       -79.68057             -200               0             -200               0
1.59211               -0.2723126       -21.50414         -50.4809       -83.13163             -200               0             -200               0
1.59868               -0.2797872       -21.71329        -50.12968       -86.67121             -200               0             -200               0
1.60526               -0.2875559        -21.9255        -49.78544       -90.29133             -200               0             -200               0
1.61184                 -0.29563       -22.14079        -49.44888       -93.98408             -200               0             -200               0
1.61842               -0.3040258       -22.35914        -49.12055       -97.74169             -200               0             -200               0
1.625                 -0.3127525       -22.58057        -48.80087       -101.5566             -200               0             -200               0
1.63158                -0.321824       -22.80509        -48.49013       -105.4217             -200               0             -200               0
1.63816                -0.331247       -23.03267         -48.1885       -109.3298             -200               0             -200               0
1.64474               -0.3410325       -23.26334        -47.89609       -113.2745             -200               0             -200               0
1.65132               -0.3511864        -23.4971        -47.61291       -117.2493             -200               0             -200               0
1.65789                -0.361717       -23.73395        -47.33891       -121.2483             -200               0             -200               0
1.66447               -0.3726286       -23.97392        -47.07398       -125.2657             -200               0             -200               0
1.67105               -0.3839252       -24.21705        -46.81793        -129.296             -200               0             -200               0
1.67763                -0.395613       -24.46336        -46.57055       -133.3341             -200               0             -200               0
1.68421               -0.4076953        -24.7129        -46.33157       -137.3751             -200               0             -200               0
1.69079               -0.4201749       -24.96575        -46.10067       -141.4144             -200               0             -200               0
1.69737               -0.4330566       -25.22197         -45.8775       -145.4475             -200               0             -200               0
1.70395               -0.4463437       -25.48166        -45.66166       -149.4703             -200               0             -200               0
1.71053               -0.4600432       -25.74492         -45.4527       -153.4789             -200               0             -200               0
1.71711               -0.4741604       -26.01187        -45.25015       -157.4697             -200               0             -200               0
1.72368               -0.4887034       -26.28264        -45.05349       -161.4394             -200               0             -200               0
1.73026               -0.5036842       -26.55737        -44.86216       -165.3848             -200               0             -200               0
1.73684               -0.5191107       -26.83622        -44.67556       -169.3032             -200               0             -200               0
1.74342               -0.5350004       -27.11936        -44.49306       -173.1921             -200               0             -200               0
1.75                  -0.5513691       -27.40696        -44.31398       -177.0496             -200               0             -200               0
1.75658               -0.5682361       -27.69921        -44.13764         179.126             -200               0             -200               0
1.76316               -0.5856248       -27.99629        -43.96328         175.336             -200               0             -200               0
1.76974               -0.6035603        -28.2984        -43.79016        171.5812             -200               0             -200               0
1.77632               -0.6220736       -28.60572         -43.6175        167.8616             -200               0             -200               0
1.78289                -0.641196       -28.91845        -43.44451        164.1772             -200               0             -200               0
1.78947               -0.6609639       -29.23679        -43.27041        160.5269             -200               0             -200               0
1.79605               -0.6814151        -29.5609        -43.09441        156.9095             -200               0             -200               0
1.80263               -0.7025931       -29.89098        -42.91575        153.3227             -200               0             -200               0
1.80921               -0.7245425       -30.22718        -42.73369        149.7639             -200               0             -200               0
1.81579                -0.747312       -30.56967        -42.54756          146.23             -200               0             -200               0
1.82237               -0.7709509       -30.91859        -42.35671         142.717             -200               0             -200               0
1.82895                -0.795514       -31.27408        -42.16059        139.2207             -200               0             -200               0
1.83553                -0.821055       -31.63625        -41.95872        135.7363             -200               0             -200               0
1.84211               -0.8476325       -32.00521        -41.75071        132.2586             -200               0             -200               0
1.84868               -0.8753043       -32.38106        -41.53628        128.7822             -200               0             -200               0
1.85526               -0.9041319       -32.76387        -41.31525        125.3015             -200               0             -200               0
1.86184                -0.934175        -33.1537        -41.08754        121.8106             -200               0             -200               0
1.86842               -0.9654979       -33.55062        -40.85319        118.3041             -200               0             -200               0
1.875                 -0.9981649       -33.95468        -40.61236        114.7762             -200               0             -200               0
1.88158                -1.032239       -34.36588        -40.36527        111.2217             -200               0             -200               0
1.88816                -1.067786       -34.78428        -40.11228        107.6355             -200               0             -200               0
1.89474                -1.104873       -35.20989        -39.85379        104.0132             -200               0             -200               0
1.90132                -1.143565       -35.64272        -39.59029        100.3504             -200               0             -200               0
1.90789                -1.183933       -36.08279        -39.32232        96.64366             -200               0             -200               0
1.91447                -1.226044       -36.53011        -39.05048        92.88974             -200               0             -200               0
1.92105                 -1.26997       -36.98469        -38.77537        89.08608             -200               0             -200               0
1.92763                -1.315782       -37.44656        -38.49764        85.23061             -200               0             -200               0
1.93421                -1.363557       -37.91572        -38.21792        81.32179             -200               0             -200               0
1.94079                -1.413372       -38.39222        -37.93684        77.35856             -200               0             -200               0
1.94737                -1.465306       -38.87608        -37.65504         73.3403             -200               0             -200               0
1.95395                -1.519446       -39.36734        -37.37313        69.26683             -200               0             -200               0
1.96053                -1.575879       -39.86605        -37.09168        65.13831             -200               0             -200               0
1.96711                -1.634701       -40.37225        -36.81124        60.95523             -200               0             -200               0
1.97368                 -1.69601       -40.88599        -36.53235        56.71839             -200               0             -200               0
1.98026                -1.759912       -41.40734        -36.25547         52.4288             -200               0             -200               0
1.98684                -1.826521       -41.93636        -35.98106        48.08766             -200               0             -200               0
1.99342                -1.895958       -42.47308        -35.70955        43.69637             -200               0             -200               0
2                      -1.968353       -43.01758         -35.4413        39.25641             -200               0             -200               0
2.00658                -2.043846       -43.56988        -35.17667        34.76941             -200               0             -200               0
2.01316                -2.122586          -44.13        -34.91596        30.23703             -200               0             -200               0
2.01974                -2.204732       -44.69796        -34.65946        25.66099             -200               0             -200               0
2.02632                -2.290457       -45.27374        -34.40742        21.04305             -200               0             -200               0
2.03289                -2.379945       -45.85727        -34.16007        16.38496             -200               0             -200               0
2.03947                -2.473391       -46.44849         -33.9176        11.68848             -200               0             -200               0
2.04605                -2.571006       -47.04724         -33.6802         6.95535             -200               0             -200               0
2.05263                -2.673013       -47.65333        -33.44802        2.187291             -200               0             -200               0
2.05921                 -2.77965       -48.26654        -33.22119       -2.614008             -200               0             -200               0
2.06579                -2.891171       -48.88652        -32.99984         -7.4469             -200               0             -200               0
2.07237                -3.007844        -49.5129        -32.78406       -12.30977             -200               0             -200               0
2.07895                -3.129955       -50.14518        -32.57395       -17.20107             -200               0             -200               0
2.08553                -3.257803       -50.78278        -32.36957       -22.11928             -200               0             -200               0
2.09211                -3.391706       -51.42502        -32.17099       -27.06291             -200               0             -200               0
2.09868                -3.532003       -52.07108        -31.97827       -32.03056             -200               0             -200               0
2.10526                -3.679046       -52.72002        -31.79145       -37.02086             -200               0             -200               0
2.11184                -3.833211       -53.37075        -31.61056       -42.03248             -200               0             -200               0
2.11842                -3.994892       -54.02203        -31.43563       -47.06413             -200               0             -200               0
2.125                  -4.164503       -54.67242        -31.26668        -52.1146             -200               0             -200               0
2.13158                -4.342483        -55.3203        -31.10374       -57.18268             -200               0             -200               0
2.13816                -4.529293       -55.96383        -30.94681       -62.26724             -200               0             -200               0
2.14474                 -4.72542       -56.60091         -30.7959       -67.36716             -200               0             -200               0
2.15132                -4.931379       -57.22921        -30.65101       -72.48138             -200               0             -200               0
2.15789                -5.147711       -57.84606        -30.51215       -77.60887             -200               0             -200               0
2.16447                -5.374991       -58.44845        -30.37931       -82.74862             -200               0             -200               0
2.17105                -5.613826       -59.03301        -30.25249       -87.89967             -200               0             -200               0
2.17763                -5.864858        -59.5959        -30.13169       -93.06109             -200               0             -200               0
2.18421                 -6.12877       -60.13279         -30.0169       -98.23197             -200               0             -200               0
2.19079                -6.406284       -60.63873         -29.9081       -103.4114             -200               0             -200               0
2.19737                -6.698169       -61.10812         -29.8053       -108.5986             -200               0             -200               0
2.20395                -7.005238       -61.53457        -29.70847       -113.7927             -200               0             -200               0
2.21053                -7.328353       -61.91069        -29.61761       -118.9928             -200               0             -200               0
2.21711                -7.668429       -62.22804        -29.53271       -124.1982             -200               0             -200               0
2.22368                -8.026424       -62.47681        -29.45375       -129.4081             -200               0             -200               0
2.23026                -8.403343       -62.64562        -29.38073       -134.6217             -200               0             -200               0
2.23684                -8.800223       -62.72118        -29.31364       -139.8383             -200               0             -200               0
2.24342                -9.218125       -62.68784        -29.25245       -145.0572             -200               0             -200               0
2.25                   -9.658097        -62.5272        -29.19716       -150.2776             -200               0             -200               0
2.25658                -10.12113       -62.21742        -29.14776       -155.4987             -200               0             -200               0
2.26316                -10.60809        -61.7325        -29.10424       -160.7199             -200               0             -200               0
2.26974                -11.11961       -61.04145        -29.06658       -165.9405             -200               0             -200               0
2.27632                -11.65591       -60.10727        -29.03477       -171.1598             -200               0             -200               0
2.28289                -12.21653        -58.8858        -29.00881        -176.377             -200               0             -200               0
2.28947                -12.79998       -57.32483        -28.98868        178.4085             -200               0             -200               0