! TOUCHSTONE file generated by CST MICROWAVE STUDIO
! Date and time: Tue Mar 18 00:01:00 2025
! Project name: oblique.cst
! Parameters = {Tilt=30; Fracture=1; B=10; D=160; F=15; Feed=2.85625; L=100; M=50; R=0.384908; S=2; Theta=180; length=57.125; wave=114.25}
! Header version: 2024
! Port assignment regex: !\s*Touchstone port\s*([0-9]+)\s*=\s*(CST MWS port|CST DES external port|CST DES block port)\s*(.+)\s* \(\"(.*)\"\)(\s*mode\s*([0-9]+))?.*
! Touchstone port assignment:
! Touchstone port 1 = CST MWS port 1 ("")
! Touchstone port 2 = CST MWS port 2 ("")
# GHz S DB R 50
1                    -0.02072927       -9.802712        -67.63231        162.0887             -200               0             -200               0
1.0066               -0.02148439       -9.890263        -67.58604        156.3948             -200               0             -200               0
1.0132               -0.02224421       -9.978337        -67.57062        150.7972             -200               0             -200               0
1.0198               -0.02300657       -10.06696        -67.58649        145.3032             -200               0             -200               0
1.0264               -0.02377029       -10.15617        -67.63423         139.922             -200               0             -200               0
1.033                -0.02453671       -10.24599        -67.71459        134.6648             -200               0             -200               0
1.0396               -0.02530504       -10.33646        -67.82842        129.5458             -200               0             -200               0
1.0462               -0.02607712        -10.4276        -67.97671        124.5824             -200               0             -200               0
1.05281              -0.02685632       -10.51946        -68.16049        119.7959             -200               0             -200               0
1.05941               -0.0276434       -10.61206        -68.38084        115.2129             -200               0             -200               0
1.06601               -0.0284407       -10.70542        -68.63872        110.8657             -200               0             -200               0
1.07261              -0.02925438       -10.79959        -68.93484        106.7948             -200               0             -200               0
1.07921              -0.03008585       -10.89457        -69.26937        103.0498             -200               0             -200               0
1.08581              -0.03094028       -10.99039        -69.64151        99.69182             -200               0             -200               0
1.09241              -0.03182196       -11.08706        -70.04877        96.79555             -200               0             -200               0
1.09901              -0.03273569        -11.1846        -70.48595         94.4501             -200               0             -200               0
1.10561              -0.03368604       -11.28301        -70.94355        92.75825             -200               0             -200               0
1.11221              -0.03467805        -11.3823        -71.40577        91.83045             -200               0             -200               0
1.11881              -0.03571493       -11.48246        -71.84808        91.76961             -200               0             -200               0
1.12541              -0.03680252       -11.58349        -72.23547        92.64143             -200               0             -200               0
1.13201              -0.03794257       -11.68539        -72.52325        94.42882             -200               0             -200               0
1.13861              -0.03913967       -11.78814        -72.66314        96.98231             -200               0             -200               0
1.14521              -0.04039524       -11.89173        -72.61551        99.99816             -200               0             -200               0
1.15182               -0.0417123       -11.99615        -72.36359        103.0608             -200               0             -200               0
1.15842              -0.04309252       -12.10138        -71.92048        105.7474             -200               0             -200               0
1.16502              -0.04453464        -12.2074        -71.32356        107.7373             -200               0             -200               0
1.17162              -0.04604093        -12.3142        -70.62064        108.8626             -200               0             -200               0
1.17822               -0.0476091       -12.42177        -69.85709        109.0932             -200               0             -200               0
1.18482               -0.0492379       -12.53009          -69.069         108.488             -200               0             -200               0
1.19142              -0.05092554       -12.63917         -68.2819        107.1478             -200               0             -200               0
1.19802              -0.05266952       -12.74899         -67.5123         105.184             -200               0             -200               0
1.20462              -0.05446612       -12.85955         -66.7701        102.7017             -200               0             -200               0
1.21122              -0.05631469       -12.97086         -66.0607        99.79277             -200               0             -200               0
1.21782              -0.05820889       -13.08294        -65.38659        96.53466             -200               0             -200               0
1.22442              -0.06014661       -13.19579        -64.74846        92.99139             -200               0             -200               0
1.23102              -0.06212276       -13.30945        -64.14595        89.21543             -200               0             -200               0
1.23762              -0.06413727       -13.42393        -63.57808        85.24976             -200               0             -200               0
1.24422              -0.06618424       -13.53927        -63.04358        81.12967             -200               0             -200               0
1.25083                -0.068263       -13.65551        -62.54101        76.88429             -200               0             -200               0
1.25743              -0.07037091       -13.77269        -62.06894         72.5379             -200               0             -200               0
1.26403              -0.07250746       -13.89086        -61.62594         68.1109             -200               0             -200               0
1.27063              -0.07467124       -14.01006        -61.21065         63.6206             -200               0             -200               0
1.27723               -0.0768641       -14.13036        -60.82181        59.08189             -200               0             -200               0
1.28383              -0.07908693        -14.2518        -60.45822        54.50772             -200               0             -200               0
1.29043              -0.08134201       -14.37444         -60.1188         49.9095             -200               0             -200               0
1.29703              -0.08363329       -14.49832        -59.80251        45.29744             -200               0             -200               0
1.30363              -0.08596457       -14.62352        -59.50841        40.68079             -200               0             -200               0
1.31023              -0.08834099       -14.75007        -59.23563        36.06807             -200               0             -200               0
1.31683              -0.09076913       -14.87802        -58.98333        31.46724             -200               0             -200               0
1.32343              -0.09325534       -15.00742        -58.75073        26.88585             -200               0             -200               0
1.33003              -0.09580701        -15.1383        -58.53708        22.33113             -200               0             -200               0
1.33663              -0.09843151        -15.2707        -58.34165        17.81015             -200               0             -200               0
1.34323               -0.1011394       -15.40464        -58.16374        13.32982             -200               0             -200               0
1.34984               -0.1039359       -15.54015        -58.00261        8.897056             -200               0             -200               0
1.35644                -0.106833       -15.67724        -57.85754        4.518741             -200               0             -200               0
1.36304               -0.1098359       -15.81592        -57.72775       0.2018283             -200               0             -200               0
1.36964               -0.1129542       -15.95619        -57.61245       -4.046661             -200               0             -200               0
1.37624               -0.1161954       -16.09805        -57.51075       -8.219623             -200               0             -200               0
1.38284               -0.1195664        -16.2415        -57.42171       -12.30989             -200               0             -200               0
1.38944               -0.1230734       -16.38652        -57.34426       -16.31027             -200               0             -200               0
1.39604               -0.1267226        -16.5331        -57.27724       -20.21361             -200               0             -200               0
1.40264                -0.130519       -16.68122        -57.21933       -24.01288             -200               0             -200               0
1.40924               -0.1344649       -16.83088        -57.16905       -27.70133             -200               0             -200               0
1.41584               -0.1385653       -16.98204        -57.12475       -31.27269             -200               0             -200               0
1.42244               -0.1428208        -17.1347        -57.08458       -34.72137             -200               0             -200               0
1.42904               -0.1472318       -17.28884        -57.04649       -38.04278             -200               0             -200               0
1.43564               -0.1517997       -17.44445        -57.00823       -41.23366             -200               0             -200               0
1.44224               -0.1565228       -17.60153        -56.96737       -44.29243             -200               0             -200               0
1.44884               -0.1614009       -17.76008         -56.9213       -47.21964             -200               0             -200               0
1.45545               -0.1664314       -17.92011        -56.86733       -50.01832             -200               0             -200               0
1.46205               -0.1716135       -18.08163        -56.80269       -52.69436             -200               0             -200               0
1.46865               -0.1769433       -18.24466        -56.72469       -55.25675             -200               0             -200               0
1.47525               -0.1824177       -18.40923        -56.63077       -57.71771             -200               0             -200               0
1.48185                -0.188037       -18.57539        -56.51862        -60.0926             -200               0             -200               0
1.48845               -0.1937984       -18.74317        -56.38636       -62.39962             -200               0             -200               0
1.49505               -0.1997013       -18.91262        -56.23255       -64.65928             -200               0             -200               0
1.50165               -0.2057451       -19.08382        -56.05636       -66.89363             -200               0             -200               0
1.50825                -0.211929       -19.25683        -55.85755       -69.12537             -200               0             -200               0
1.51485               -0.2182563       -19.43171        -55.63653       -71.37692             -200               0             -200               0
1.52145               -0.2247296       -19.60854         -55.3943       -73.66942             -200               0             -200               0
1.52805               -0.2313519        -19.7874        -55.13237       -76.02198             -200               0             -200               0
1.53465               -0.2381321       -19.96839        -54.85268       -78.45102             -200               0             -200               0
1.54125               -0.2450726       -20.15156        -54.55747        -80.9699             -200               0             -200               0
1.54785               -0.2521866       -20.33701        -54.24918       -83.58874             -200               0             -200               0
1.55446               -0.2594789        -20.5248         -53.9303        -86.3145             -200               0             -200               0
1.56106               -0.2669643       -20.71503        -53.60332       -89.15117             -200               0             -200               0
1.56766               -0.2746533       -20.90775        -53.27063       -92.10008             -200               0             -200               0
1.57426               -0.2825582       -21.10303        -52.93445       -95.16036             -200               0             -200               0
1.58086               -0.2906951       -21.30093        -52.59682       -98.32922             -200               0             -200               0
1.58746               -0.2990777       -21.50149        -52.25957       -101.6025             -200               0             -200               0
1.59406               -0.3077206       -21.70475        -51.92429       -104.9749             -200               0             -200               0
1.60066               -0.3166396       -21.91076        -51.59239       -108.4402             -200               0             -200               0
1.60726               -0.3258499       -22.11952        -51.26503       -111.9921             -200               0             -200               0
1.61386               -0.3353669       -22.33107        -50.94322       -115.6235             -200               0             -200               0
1.62046               -0.3452046       -22.54541        -50.62777       -119.3273             -200               0             -200               0
1.62706               -0.3553782       -22.76255        -50.31935       -123.0967             -200               0             -200               0
1.63366               -0.3658984       -22.98247        -50.01846       -126.9246             -200               0             -200               0
1.64026               -0.3767797       -23.20518        -49.72551       -130.8043             -200               0             -200               0
1.64686               -0.3880325       -23.43067        -49.44079       -134.7291             -200               0             -200               0
1.65347               -0.3996664       -23.65892        -49.16448       -138.6927             -200               0             -200               0
1.66007               -0.4116895       -23.88993        -48.89668        -142.689             -200               0             -200               0
1.66667               -0.4241091        -24.1237        -48.63743       -146.7122             -200               0             -200               0
1.67327               -0.4369313       -24.36021        -48.38669       -150.7566             -200               0             -200               0
1.67987               -0.4501603       -24.59948        -48.14435       -154.8168             -200               0             -200               0
1.68647               -0.4638014       -24.84151        -47.91027       -158.8878             -200               0             -200               0
1.69307               -0.4778549       -25.08633        -47.68424       -162.9646             -200               0             -200               0
1.69967               -0.4923259       -25.33398          -47.466       -167.0427             -200               0             -200               0
1.70627               -0.5072149       -25.58449        -47.25526       -171.1177             -200               0             -200               0
1.71287                -0.522525       -25.83794        -47.05167       -175.1854             -200               0             -200               0
1.71947               -0.5382552       -26.09438        -46.85485       -179.2418             -200               0             -200               0
1.72607                -0.554412       -26.35393        -46.66437        176.7167             -200               0             -200               0
1.73267                -0.570996       -26.61666        -46.47978        172.6936             -200               0             -200               0
1.73927               -0.5880141       -26.88271        -46.30055         168.692             -200               0             -200               0
1.74587               -0.6054718       -27.15221        -46.12615        164.7148             -200               0             -200               0
1.75248                -0.623377        -27.4253        -45.95599        160.7645             -200               0             -200               0
1.75908                -0.641741       -27.70214        -45.78945        156.8435             -200               0             -200               0
1.76568               -0.6605778        -27.9829        -45.62588        152.9535             -200               0             -200               0
1.77228               -0.6799021       -28.26775        -45.46459         149.096             -200               0             -200               0
1.77888               -0.6997345       -28.55688        -45.30487         145.272             -200               0             -200               0
1.78548               -0.7200939       -28.85047        -45.14598        141.4822             -200               0             -200               0
1.79208               -0.7410092       -29.14872        -44.98716        137.7265             -200               0             -200               0
1.79868               -0.7625074       -29.45181        -44.82766        134.0045             -200               0             -200               0
1.80528               -0.7846199       -29.75993        -44.66672        130.3151             -200               0             -200               0
1.81188               -0.8073825       -30.07325        -44.50359        126.6568             -200               0             -200               0
1.81848               -0.8308332       -30.39196        -44.33753        123.0272             -200               0             -200               0
1.82508               -0.8550116       -30.71621        -44.16787        119.4238             -200               0             -200               0
1.83168                -0.879963       -31.04617        -43.99395         115.843             -200               0             -200               0
1.83828               -0.9057326       -31.38196        -43.81519        112.2811             -200               0             -200               0
1.84488               -0.9323681       -31.72373        -43.63107        108.7337             -200               0             -200               0
1.85149               -0.9599199       -32.07159        -43.44115        105.1961             -200               0             -200               0
1.85809               -0.9884387       -32.42564         -43.2451         101.663             -200               0             -200               0
1.86469                -1.017977       -32.78597        -43.04267        98.12928             -200               0             -200               0
1.87129                -1.048587       -33.15265        -42.83373        94.58931             -200               0             -200               0
1.87789                -1.080324       -33.52575        -42.61822        91.03758             -200               0             -200               0
1.88449                -1.113242       -33.90532        -42.39624        87.46859             -200               0             -200               0
1.89109                -1.147394        -34.2914        -42.16794          83.877             -200               0             -200               0
1.89769                -1.182836       -34.68406        -41.93359        80.25773             -200               0             -200               0
1.90429                -1.219619        -35.0833        -41.69355          76.606             -200               0             -200               0
1.91089                  -1.2578       -35.48919        -41.44823        72.91746             -200               0             -200               0
1.91749                 -1.29743       -35.90175        -41.19812        69.18819             -200               0             -200               0
1.92409                -1.338566       -36.32103        -40.94377        65.41476             -200               0             -200               0
1.93069                 -1.38126       -36.74709        -40.68576        61.59426             -200               0             -200               0
1.93729                -1.425569       -37.18001        -40.42468        57.72427             -200               0             -200               0
1.94389                -1.471548       -37.61985        -40.16117        53.80289             -200               0             -200               0
1.9505                 -1.519256       -38.06673        -39.89585        49.82873             -200               0             -200               0
1.9571                 -1.568755       -38.52076        -39.62933        45.80084             -200               0             -200               0
1.9637                 -1.620106       -38.98209        -39.36222        41.71868             -200               0             -200               0
1.9703                 -1.673378       -39.45088        -39.09512        37.58215             -200               0             -200               0
1.9769                 -1.728646       -39.92731        -38.82858        33.39145             -200               0             -200               0
1.9835                 -1.785985       -40.41161        -38.56314        29.14711             -200               0             -200               0
1.9901                 -1.845482       -40.90402         -38.2993        24.84993             -200               0             -200               0
1.9967                  -1.90723       -41.40479        -38.03754        20.50092             -200               0             -200               0
2.0033                 -1.971331       -41.91418        -37.77828        16.10129             -200               0             -200               0
2.0099                 -2.037896       -42.43251        -37.52193        11.65238             -200               0             -200               0
2.0165                 -2.107049       -42.96007        -37.26885        7.155662             -200               0             -200               0
2.0231                 -2.178924       -43.49718        -37.01938        2.612708             -200               0             -200               0
2.0297                  -2.25367       -44.04416        -36.77383       -1.974856             -200               0             -200               0
2.0363                 -2.331447       -44.60131        -36.53246       -6.605357             -200               0             -200               0
2.0429                 -2.412435       -45.16894        -36.29553        -11.2771             -200               0             -200               0
2.0495                 -2.496824       -45.74735        -36.06325       -15.98837             -200               0             -200               0
2.05611                -2.584826       -46.33678        -35.83581       -20.73747             -200               0             -200               0
2.06271                -2.676667       -46.93746         -35.6134       -25.52271             -200               0             -200               0
2.06931                -2.772592       -47.54958        -35.39616       -30.34242             -200               0             -200               0
2.07591                -2.872866       -48.17327        -35.18422       -35.19497             -200               0             -200               0
2.08251                -2.977774       -48.80859        -34.97771       -40.07877             -200               0             -200               0
2.08911                -3.087619       -49.45555        -34.77672       -44.99226             -200               0             -200               0
2.09571                -3.202727       -50.11408        -34.58135       -49.93392             -200               0             -200               0
2.10231                -3.323448       -50.78398        -34.39166       -54.90228             -200               0             -200               0
2.10891                -3.450148       -51.46501        -34.20771       -59.89593             -200               0             -200               0
2.11551                -3.583223       -52.15675        -34.02958       -64.91349             -200               0             -200               0
2.12211                -3.723091       -52.85873        -33.85729       -69.95363             -200               0             -200               0
2.12871                -3.870196       -53.57027         -33.6909       -75.01507             -200               0             -200               0
2.13531                -4.025007        -54.2906        -33.53041       -80.09658             -200               0             -200               0
2.14191                -4.188027       -55.01876        -33.37587       -85.19696             -200               0             -200               0
2.14851                -4.359783       -55.75362         -33.2273       -90.31506             -200               0             -200               0
2.15512                 -4.54084       -56.49384        -33.08469       -95.44978             -200               0             -200               0
2.16172                -4.731797       -57.23789        -32.94808          -100.6             -200               0             -200               0
2.16832                -4.933293         -57.984        -32.81746       -105.7648             -200               0             -200               0
2.17492                -5.146011        -58.7301        -32.69283       -110.9431             -200               0             -200               0
2.18152                 -5.37068       -59.47384        -32.57421       -116.1339             -200               0             -200               0
2.18812                -5.608084       -60.21256        -32.46159       -121.3364             -200               0             -200               0
2.19472                -5.859065       -60.94317        -32.35497       -126.5496             -200               0             -200               0
2.20132                -6.124535       -61.66215        -32.25434       -131.7726             -200               0             -200               0
2.20792                -6.405482       -62.36548        -32.15971       -137.0047             -200               0             -200               0
2.21452                -6.702981       -63.04849        -32.07106       -142.2449             -200               0             -200               0
2.22112                -7.018208       -63.70584         -31.9884       -147.4925             -200               0             -200               0
2.22772                -7.352448       -64.33126        -31.91171       -152.7466             -200               0             -200               0
2.23432                -7.707124       -64.91748        -31.84099       -158.0066             -200               0             -200               0
2.24092                -8.083803       -65.45593        -31.77623       -163.2717             -200               0             -200               0
2.24752                -8.484225       -65.93645        -31.71744       -168.5412             -200               0             -200               0
2.25413                -8.910327       -66.34689        -31.66459       -173.8142             -200               0             -200               0
2.26073                -9.364269       -66.67258        -31.61769       -179.0902             -200               0             -200               0
2.26733                -9.848458       -66.89571        -31.57673        175.6316             -200               0             -200               0
2.27393                -10.36558       -66.99427        -31.54171        170.3519             -200               0             -200               0
2.28053                -10.91862        -66.9409        -31.51262        165.0713             -200               0             -200               0
2.28713                -11.51083       -66.70119        -31.48946        159.7905             -200               0             -200               0
2.29373                -12.14575        -66.2312        -31.47222        154.5102             -200               0             -200               0