! TOUCHSTONE file generated by CST MICROWAVE STUDIO
! Date and time: Tue Mar 18 00:01:36 2025
! Project name: oblique.cst
! Parameters = {Tilt=30; Fracture=1; B=12.5; D=160; F=15; Feed=2.85625; L=100; M=10; R=0.384908; S=2; Theta=90; length=57.125; wave=114.25}
! Header version: 2024
! Port assignment regex: !\s*Touchstone port\s*([0-9]+)\s*=\s*(CST MWS port|CST DES external port|CST DES block port)\s*(.+)\s* \(\"(.*)\"\)(\s*mode\s*([0-9]+))?.*
! Touchstone port assignment:
! Touchstone port 1 = CST MWS port 1 ("")
! Touchstone port 2 = CST MWS port 2 ("")
# GHz S DB R 50
1                    -0.01917003       -9.781219        -70.28567       -149.7359             -200               0             -200               0
1.00658              -0.01988559       -9.869457        -70.08543       -152.9487             -200               0             -200               0
1.01316               -0.0206392        -9.95818        -69.90037       -156.0893             -200               0             -200               0
1.01974              -0.02142832       -10.04738        -69.72898       -159.1469             -200               0             -200               0
1.02632              -0.02224913       -10.13704        -69.56957       -162.1108             -200               0             -200               0
1.03289              -0.02309935       -10.22716        -69.42025       -164.9714             -200               0             -200               0
1.03947              -0.02397498       -10.31774        -69.27891       -167.7197             -200               0             -200               0
1.04605              -0.02487287       -10.40879        -69.14322       -170.3481             -200               0             -200               0
1.05263              -0.02578927       -10.50033        -69.01059       -172.8504             -200               0             -200               0
1.05921              -0.02672127       -10.59236        -68.87821       -175.2227             -200               0             -200               0
1.06579              -0.02766434       -10.68491        -68.74306       -177.4631             -200               0             -200               0
1.07237              -0.02861678         -10.778        -68.60197       -179.5731             -200               0             -200               0
1.07895              -0.02957481       -10.87166         -68.4517        178.4426             -200               0             -200               0
1.08553              -0.03053757       -10.96593        -68.28901        176.5756             -200               0             -200               0
1.09211              -0.03150456       -11.06084        -68.11084        174.8134             -200               0             -200               0
1.09868              -0.03247326       -11.15642        -67.91442        173.1395             -200               0             -200               0
1.10526              -0.03344406       -11.25272        -67.69741        171.5342             -200               0             -200               0
1.11184              -0.03441842       -11.34978        -67.45807        169.9746             -200               0             -200               0
1.11842              -0.03539774       -11.44763        -67.19534        168.4359             -200               0             -200               0
1.125                -0.03638552       -11.54632         -66.9089        166.8924             -200               0             -200               0
1.13158              -0.03738376       -11.64588        -66.59922         165.319             -200               0             -200               0
1.13816              -0.03839554       -11.74634        -66.26743        163.6919             -200               0             -200               0
1.14474              -0.03942708       -11.84774        -65.91533        161.9899             -200               0             -200               0
1.15132              -0.04048117       -11.95011        -65.54516        160.1952             -200               0             -200               0
1.15789              -0.04156428       -12.05346        -65.15951        158.2937             -200               0             -200               0
1.16447              -0.04268207       -12.15781        -64.76116        156.2751             -200               0             -200               0
1.17105              -0.04383917       -12.26318        -64.35295        154.1328             -200               0             -200               0
1.17763              -0.04504149       -12.36958        -63.93763        151.8637             -200               0             -200               0
1.18421              -0.04629511         -12.477        -63.51783        149.4676             -200               0             -200               0
1.19079              -0.04760465       -12.58546        -63.09596        146.9467             -200               0             -200               0
1.19737               -0.0489744       -12.69493        -62.67417        144.3053             -200               0             -200               0
1.20395              -0.05040981       -12.80541        -62.25437        141.5488             -200               0             -200               0
1.21053              -0.05191331       -12.91689        -61.83822        138.6841             -200               0             -200               0
1.21711              -0.05348885       -13.02936        -61.42709        135.7185             -200               0             -200               0
1.22368              -0.05513866       -13.14279        -61.02214        132.6599             -200               0             -200               0
1.23026              -0.05686377       -13.25717        -60.62434         129.516             -200               0             -200               0
1.23684              -0.05866563       -13.37248        -60.23442        126.2949             -200               0             -200               0
1.24342              -0.06054276        -13.4887        -59.85298        123.0044             -200               0             -200               0
1.25                 -0.06249601       -13.60583        -59.48047         119.652             -200               0             -200               0
1.25658              -0.06452207       -13.72384        -59.11718        116.2451             -200               0             -200               0
1.26316              -0.06662011       -13.84273        -58.76333        112.7907             -200               0             -200               0
1.26974              -0.06878597       -13.96249        -58.41901        109.2954             -200               0             -200               0
1.27632              -0.07101779       -14.08313        -58.08426        105.7655             -200               0             -200               0
1.28289              -0.07331051       -14.20465        -57.75902         102.207             -200               0             -200               0
1.28947               -0.0756604       -14.32707        -57.44319        98.62551             -200               0             -200               0
1.29605              -0.07806427        -14.4504        -57.13659        95.02631             -200               0             -200               0
1.30263              -0.08051739       -14.57467          -56.839        91.41439             -200               0             -200               0
1.30921               -0.0830166        -14.6999        -56.55019        87.79439             -200               0             -200               0
1.31579              -0.08555766       -14.82615        -56.26984        84.17069             -200               0             -200               0
1.32237                -0.088139       -14.95344        -55.99763        80.54733             -200               0             -200               0
1.32895              -0.09075773       -15.08183        -55.73319        76.92811             -200               0             -200               0
1.33553              -0.09341108       -15.21136        -55.47613        73.31651             -200               0             -200               0
1.34211              -0.09610085        -15.3421        -55.22604        69.71573             -200               0             -200               0
1.34868              -0.09882484        -15.4741        -54.98246         66.1287             -200               0             -200               0
1.35526               -0.1015849       -15.60743        -54.74494        62.55805             -200               0             -200               0
1.36184               -0.1043829       -15.74214        -54.51297        59.00613             -200               0             -200               0
1.36842               -0.1072227        -15.8783        -54.28606        55.47496             -200               0             -200               0
1.375                 -0.1101064       -16.01597        -54.06367        51.96626             -200               0             -200               0
1.38158               -0.1130409        -16.1552        -53.84528        48.48145             -200               0             -200               0
1.38816                 -0.11603       -16.29606        -53.63033        45.02159             -200               0             -200               0
1.39474               -0.1190812        -16.4386        -53.41828        41.58742             -200               0             -200               0
1.40132               -0.1222006       -16.58287        -53.20856        38.17931             -200               0             -200               0
1.40789               -0.1253967       -16.72891        -53.00063        34.79728             -200               0             -200               0
1.41447               -0.1286766       -16.87676        -52.79394        31.44101             -200               0             -200               0
1.42105               -0.1320488       -17.02645        -52.58796        28.10981             -200               0             -200               0
1.42763                -0.135521       -17.17803        -52.38218        24.80263             -200               0             -200               0
1.43421               -0.1391018       -17.33151        -52.17611        21.51809             -200               0             -200               0
1.44079                -0.142799       -17.48691         -51.9693        18.25449             -200               0             -200               0
1.44737               -0.1466201       -17.64425        -51.76134        15.00982             -200               0             -200               0
1.45395               -0.1505711       -17.80354        -51.55185        11.78182             -200               0             -200               0
1.46053               -0.1546603        -17.9648         -51.3405        8.567974             -200               0             -200               0
1.46711               -0.1588934       -18.12803        -51.12703        5.365588             -200               0             -200               0
1.47368               -0.1632742       -18.29324        -50.91122        2.171825             -200               0             -200               0
1.48026               -0.1678082       -18.46043         -50.6929       -1.016252             -200               0             -200               0
1.48684               -0.1724985       -18.62961        -50.47197       -4.201623             -200               0             -200               0
1.49342               -0.1773486        -18.8008         -50.2484       -7.387254             -200               0             -200               0
1.5                   -0.1823605         -18.974        -50.02221       -10.57606             -200               0             -200               0
1.50658               -0.1875361       -19.14924        -49.79344       -13.77083             -200               0             -200               0
1.51316               -0.1928754       -19.32654        -49.56224       -16.97421             -200               0             -200               0
1.51974               -0.1983811       -19.50593        -49.32876       -20.18864             -200               0             -200               0
1.52632                -0.204052       -19.68744        -49.09321       -23.41636             -200               0             -200               0
1.53289               -0.2098886       -19.87112        -48.85583        -26.6593             -200               0             -200               0
1.53947               -0.2158916       -20.05702         -48.6169       -29.91917             -200               0             -200               0
1.54605               -0.2220614        -20.2452        -48.37669       -33.19733             -200               0             -200               0
1.55263               -0.2283994       -20.43573        -48.13553        -36.4949             -200               0             -200               0
1.55921               -0.2349066       -20.62867        -47.89372       -39.81266             -200               0             -200               0
1.56579                -0.241586       -20.82413        -47.65157        -43.1511             -200               0             -200               0
1.57237               -0.2484399       -21.02218        -47.40941       -46.51046             -200               0             -200               0
1.57895               -0.2554755       -21.22292        -47.16755       -49.89065             -200               0             -200               0
1.58553               -0.2626948       -21.42647        -46.92627        -53.2914             -200               0             -200               0
1.59211               -0.2701082       -21.63291        -46.68585       -56.71214             -200               0             -200               0
1.59868               -0.2777231       -21.84237        -46.44654       -60.15215             -200               0             -200               0
1.60526               -0.2855496       -22.05497        -46.20859       -63.61046             -200               0             -200               0
1.61184               -0.2935996       -22.27081         -45.9722       -67.08601             -200               0             -200               0
1.61842               -0.3018882       -22.49002        -45.73755       -70.57754             -200               0             -200               0
1.625                 -0.3104277        -22.7127         -45.5048        -74.0837             -200               0             -200               0
1.63158                -0.319238       -22.93898        -45.27406       -77.60306             -200               0             -200               0
1.63816               -0.3283359       -23.16896        -45.04544       -81.13409             -200               0             -200               0
1.64474               -0.3377429       -23.40274        -44.81899       -84.67526             -200               0             -200               0
1.65132               -0.3474779       -23.64043        -44.59476       -88.22498             -200               0             -200               0
1.65789               -0.3575644       -23.88213        -44.37273       -91.78167             -200               0             -200               0
1.66447               -0.3680262       -24.12791        -44.15289       -95.34376             -200               0             -200               0
1.67105               -0.3788877       -24.37787        -43.93517       -98.90974             -200               0             -200               0
1.67763               -0.3901744       -24.63206        -43.71951       -102.4781             -200               0             -200               0
1.68421               -0.4019115       -24.89057        -43.50578       -106.0475             -200               0             -200               0
1.69079               -0.4141258       -25.15345        -43.29385       -109.6167             -200               0             -200               0
1.69737               -0.4268439       -25.42075        -43.08356       -113.1843             -200               0             -200               0
1.70395               -0.4400933       -25.69253        -42.87474       -116.7494             -200               0             -200               0
1.71053               -0.4538996       -25.96882        -42.66716        -120.311             -200               0             -200               0
1.71711               -0.4682904       -26.24966        -42.46063       -123.8684             -200               0             -200               0
1.72368               -0.4832923       -26.53508         -42.2549        -127.421             -200               0             -200               0
1.73026               -0.4989323       -26.82513        -42.04972       -130.9682             -200               0             -200               0
1.73684                -0.515236       -27.11982        -41.84484         -134.51             -200               0             -200               0
1.74342               -0.5322306       -27.41919        -41.63999       -138.0463             -200               0             -200               0
1.75                  -0.5499426       -27.72327         -41.4349       -141.5772             -200               0             -200               0
1.75658               -0.5683982       -28.03209         -41.2293       -145.1031             -200               0             -200               0
1.76316               -0.5876233        -28.3457        -41.02293       -148.6247             -200               0             -200               0
1.76974               -0.6076452       -28.66412        -40.81554       -152.1427             -200               0             -200               0
1.77632               -0.6284914       -28.98741        -40.60687       -155.6581             -200               0             -200               0
1.78289               -0.6501906       -29.31563         -40.3967       -159.1722             -200               0             -200               0
1.78947               -0.6727708       -29.64882        -40.18482       -162.6864             -200               0             -200               0
1.79605               -0.6962626       -29.98705        -39.97104       -166.2022             -200               0             -200               0
1.80263               -0.7206979       -30.33039         -39.7552       -169.7213             -200               0             -200               0
1.80921               -0.7461101       -30.67892        -39.53715       -173.2456             -200               0             -200               0
1.81579               -0.7725343       -31.03271        -39.31681        -176.777             -200               0             -200               0
1.82237               -0.8000078       -31.39187        -39.09408        179.6824             -200               0             -200               0
1.82895               -0.8285719       -31.75646        -38.86895        176.1306             -200               0             -200               0
1.83553               -0.8582689       -32.12659        -38.64139        172.5653             -200               0             -200               0
1.84211               -0.8891456       -32.50236        -38.41145        168.9846             -200               0             -200               0
1.84868               -0.9212503       -32.88386        -38.17918        165.3862             -200               0             -200               0
1.85526               -0.9546359       -33.27117        -37.94468        161.7682             -200               0             -200               0
1.86184               -0.9893583       -33.66439        -37.70809        158.1286             -200               0             -200               0
1.86842                -1.025478       -34.06359        -37.46955        154.4656             -200               0             -200               0
1.875                  -1.063058       -34.46885        -37.22924        150.7774             -200               0             -200               0
1.88158                -1.102167       -34.88024        -36.98738        147.0623             -200               0             -200               0
1.88816                -1.142875       -35.29779        -36.74418         143.319             -200               0             -200               0
1.89474                -1.185258       -35.72155         -36.4999        139.5462             -200               0             -200               0
1.90132                -1.229394       -36.15154        -36.25478        135.7427             -200               0             -200               0
1.90789                -1.275367       -36.58774         -36.0091        131.9075             -200               0             -200               0
1.91447                -1.323263       -37.03014        -35.76313        128.0399             -200               0             -200               0
1.92105                -1.373171       -37.47869        -35.51715        124.1393             -200               0             -200               0
1.92763                -1.425186       -37.93332        -35.27144        120.2052             -200               0             -200               0
1.93421                -1.479403       -38.39393        -35.02628        116.2372             -200               0             -200               0
1.94079                -1.535921       -38.86039        -34.78195        112.2354             -200               0             -200               0
1.94737                -1.594845       -39.33255        -34.53873        108.1996             -200               0             -200               0
1.95395                -1.656278       -39.81022        -34.29687          104.13             -200               0             -200               0
1.96053                -1.720329       -40.29319        -34.05663        100.0268             -200               0             -200               0
1.96711                -1.787107        -40.7812        -33.81826        95.89049             -200               0             -200               0
1.97368                -1.856727       -41.27396        -33.58201        91.72142             -200               0             -200               0
1.98026                -1.929301       -41.77118        -33.34809        87.52018             -200               0             -200               0
1.98684                -2.004946       -42.27249        -33.11672         83.2874             -200               0             -200               0
1.99342                -2.083783        -42.7775        -32.88811        79.02379             -200               0             -200               0
2                      -2.165932       -43.28581        -32.66244        74.73009             -200               0             -200               0
2.00658                -2.251515       -43.79694        -32.43989        70.40713             -200               0             -200               0
2.01316                 -2.34066       -44.31043        -32.22064        66.05576             -200               0             -200               0
2.01974                -2.433491       -44.82571        -32.00483        61.67686             -200               0             -200               0
2.02632                 -2.53014       -45.34224        -31.79261        57.27134             -200               0             -200               0
2.03289                -2.630739       -45.85942        -31.58411        52.84015             -200               0             -200               0
2.03947                -2.735422       -46.37658        -31.37946        48.38424             -200               0             -200               0
2.04605                -2.844328       -46.89305        -31.17876        43.90457             -200               0             -200               0
2.05263                  -2.9576       -47.40808        -30.98213         39.4021             -200               0             -200               0
2.05921                 -3.07538       -47.92091        -30.78964         34.8778             -200               0             -200               0
2.06579                -3.197819       -48.43071         -30.6014        30.33265             -200               0             -200               0
2.07237                -3.325073       -48.93658        -30.41746         25.7676             -200               0             -200               0
2.07895                -3.457297       -49.43759        -30.23791        21.18362             -200               0             -200               0
2.08553                -3.594656       -49.93273         -30.0628        16.58166             -200               0             -200               0
2.09211                -3.737321       -50.42094        -29.89219        11.96266             -200               0             -200               0
2.09868                 -3.88547       -50.90105        -29.72613         7.32755             -200               0             -200               0
2.10526                -4.039285       -51.37181        -29.56465        2.677243             -200               0             -200               0
2.11184                -4.198957       -51.83192         -29.4078       -1.987354             -200               0             -200               0
2.11842                -4.364686       -52.27992        -29.25561        -6.66535             -200               0             -200               0
2.125                   -4.53668       -52.71425        -29.10811       -11.35587             -200               0             -200               0
2.13158                -4.715154       -53.13322        -28.96531       -16.05805             -200               0             -200               0
2.13816                -4.900335         -53.535        -28.82724       -20.77105             -200               0             -200               0
2.14474                 -5.09246       -53.91756        -28.69391       -25.49402             -200               0             -200               0
2.15132                -5.291773        -54.2787        -28.56533       -30.22615             -200               0             -200               0
2.15789                -5.498529       -54.61602        -28.44151       -34.96664             -200               0             -200               0
2.16447                -5.712993       -54.92684        -28.32246       -39.71469             -200               0             -200               0
2.17105                -5.935438       -55.20824        -28.20817       -44.46951             -200               0             -200               0
2.17763                -6.166148       -55.45697        -28.09865       -49.23036             -200               0             -200               0
2.18421                -6.405409       -55.66941        -27.99389       -53.99646             -200               0             -200               0
2.19079                -6.653514       -55.84158        -27.89388       -58.76708             -200               0             -200               0
2.19737                -6.910759       -55.96904        -27.79862       -63.54148             -200               0             -200               0
2.20395                -7.177437        -56.0468         -27.7081       -68.31894             -200               0             -200               0
2.21053                 -7.45383       -56.06934         -27.6223       -73.09875             -200               0             -200               0
2.21711                 -7.74021       -56.03042        -27.54121       -77.88022             -200               0             -200               0
2.22368                -8.036821       -55.92314        -27.46481       -82.66264             -200               0             -200               0
2.23026                -8.343872       -55.73966        -27.39309       -87.44533             -200               0             -200               0
2.23684                -8.661514       -55.47126        -27.32601       -92.22761             -200               0             -200               0
2.24342                 -8.98983       -55.10817        -27.26357       -97.00882             -200               0             -200               0
2.25                   -9.328791       -54.63938        -27.20573       -101.7883             -200               0             -200               0
2.25658                -9.678235       -54.05265        -27.15248       -106.5654             -200               0             -200               0
2.26316                -10.03781        -53.3343        -27.10377       -111.3394             -200               0             -200               0
2.26974                -10.40693       -52.46924        -27.05958       -116.1098             -200               0             -200               0
2.27632                -10.78467       -51.44079        -27.01989       -120.8758             -200               0             -200               0
2.28289                -11.16972       -50.23091        -26.98464       -125.6369             -200               0             -200               0
2.28947                -11.56024       -48.82024        -26.95382       -130.3925             -200               0             -200               0