! TOUCHSTONE file generated by CST MICROWAVE STUDIO
! Date and time: Tue Mar 18 00:00:52 2025
! Project name: oblique.cst
! Parameters = {Tilt=30; Fracture=1; B=10; D=160; F=15; Feed=2.85625; L=100; M=10; R=0.384908; S=1; Theta=180; length=57.125; wave=114.25}
! Header version: 2024
! Port assignment regex: !\s*Touchstone port\s*([0-9]+)\s*=\s*(CST MWS port|CST DES external port|CST DES block port)\s*(.+)\s* \(\"(.*)\"\)(\s*mode\s*([0-9]+))?.*
! Touchstone port assignment:
! Touchstone port 1 = CST MWS port 1 ("")
! Touchstone port 2 = CST MWS port 2 ("")
# GHz S DB R 50
1                    -0.01836607       -9.798206        -69.52242       -134.5821             -200               0             -200               0
1.0066               -0.01923525       -9.887587        -69.19189       -139.1033             -200               0             -200               0
1.0132               -0.02015732       -9.977256        -68.89926       -143.5939             -200               0             -200               0
1.0198               -0.02112496       -10.06719        -68.64292       -148.0397             -200               0             -200               0
1.0264               -0.02212801       -10.15736        -68.42146       -152.4269             -200               0             -200               0
1.033                -0.02315911       -10.24777        -68.23367       -156.7411             -200               0             -200               0
1.0396               -0.02420743       -10.33842        -68.07845       -160.9673             -200               0             -200               0
1.0462                -0.0252634       -10.42933        -67.95476       -165.0897             -200               0             -200               0
1.05281               -0.0263171       -10.52053        -67.86155        -169.091             -200               0             -200               0
1.05941              -0.02736183       -10.61205        -67.79771       -172.9523             -200               0             -200               0
1.06601              -0.02838589       -10.70396        -67.76195        -176.653             -200               0             -200               0
1.07261              -0.02938514       -10.79631        -67.75273        179.8299             -200               0             -200               0
1.07921              -0.03035513       -10.88916        -67.76809        176.5214             -200               0             -200               0
1.08581              -0.03128899        -10.9826        -67.80546         173.449             -200               0             -200               0
1.09241              -0.03218712        -11.0767        -67.86152        170.6419             -200               0             -200               0
1.09901              -0.03304859       -11.17155        -67.93189        168.1307             -200               0             -200               0
1.10561              -0.03387463       -11.26723        -68.01088        165.9457             -200               0             -200               0
1.11221              -0.03466898       -11.36382        -68.09126        164.1146             -200               0             -200               0
1.11881               -0.0354374       -11.46139        -68.16403        162.6592             -200               0             -200               0
1.12541               -0.0361871       -11.56003        -68.21837        161.5906             -200               0             -200               0
1.13201              -0.03692412        -11.6598        -68.24199        160.9038             -200               0             -200               0
1.13861              -0.03766178       -11.76075        -68.22175        160.5716             -200               0             -200               0
1.14521               -0.0384082       -11.86293        -68.14484        160.5409             -200               0             -200               0
1.15182              -0.03917737       -11.96637        -68.00041         160.732             -200               0             -200               0
1.15842              -0.03997916       -12.07111        -67.78116        161.0427             -200               0             -200               0
1.16502              -0.04082875       -12.17715        -67.48467        161.3592             -200               0             -200               0
1.17162               -0.0417358       -12.28448        -67.11373        161.5685             -200               0             -200               0
1.17822               -0.0427142        -12.3931        -66.67582        161.5717             -200               0             -200               0
1.18482              -0.04377295       -12.50298        -66.18177        161.2931             -200               0             -200               0
1.19142              -0.04492285       -12.61409        -65.64402         160.684             -200               0             -200               0
1.19802               -0.0461743       -12.72638        -65.07515        159.7211             -200               0             -200               0
1.20462              -0.04753191       -12.83979        -64.48673        158.4026             -200               0             -200               0
1.21122              -0.04900231       -12.95428        -63.88874        156.7415             -200               0             -200               0
1.21782              -0.05058744       -13.06977         -63.2893        154.7609             -200               0             -200               0
1.22442              -0.05229209       -13.18621        -62.69479        152.4893             -200               0             -200               0
1.23102              -0.05411309       -13.30354        -62.11002        149.9571             -200               0             -200               0
1.23762              -0.05604777       -13.42169        -61.53848        147.1945             -200               0             -200               0
1.24422              -0.05809393       -13.54061        -60.98262        144.2305             -200               0             -200               0
1.25083              -0.06024567       -13.66026        -60.44409        141.0919             -200               0             -200               0
1.25743              -0.06249354        -13.7806        -59.92389        137.8031             -200               0             -200               0
1.26403              -0.06482996       -13.90159        -59.42257        134.3862             -200               0             -200               0
1.27063              -0.06724641       -14.02324        -58.94033        130.8608             -200               0             -200               0
1.27723              -0.06973035       -14.14554        -58.47711        127.2446             -200               0             -200               0
1.28383              -0.07227449       -14.26849        -58.03266        123.5533             -200               0             -200               0
1.29043              -0.07486432       -14.39213        -57.60661         119.801             -200               0             -200               0
1.29703              -0.07749356       -14.51649        -57.19847        116.0003             -200               0             -200               0
1.30363              -0.08014911       -14.64163         -56.8077        112.1625             -200               0             -200               0
1.31023              -0.08282575       -14.76762        -56.43369        108.2981             -200               0             -200               0
1.31683              -0.08551461       -14.89454         -56.0758        104.4162             -200               0             -200               0
1.32343               -0.0882097       -15.02246        -55.73334        100.5253             -200               0             -200               0
1.33003              -0.09090957       -15.15149        -55.40562        96.63336             -200               0             -200               0
1.33663              -0.09361117       -15.28173        -55.09191        92.74735             -200               0             -200               0
1.34323               -0.0963158       -15.41329        -54.79145        88.87391             -200               0             -200               0
1.34984              -0.09902569       -15.54627        -54.50346        85.01909             -200               0             -200               0
1.35644               -0.1017467       -15.68077        -54.22714        81.18847             -200               0             -200               0
1.36304               -0.1044853       -15.81689        -53.96164        77.38718             -200               0             -200               0
1.36964               -0.1072509       -15.95473        -53.70612        73.61988             -200               0             -200               0
1.37624               -0.1100554       -16.09439        -53.45966        69.89081             -200               0             -200               0
1.38284               -0.1129103       -16.23592        -53.22134        66.20369             -200               0             -200               0
1.38944               -0.1158304       -16.37941        -52.99019        62.56181             -200               0             -200               0
1.39604               -0.1188292        -16.5249        -52.76521        58.96788             -200               0             -200               0
1.40264               -0.1219248       -16.67243        -52.54536        55.42408             -200               0             -200               0
1.40924               -0.1251315       -16.82202        -52.32961        51.93196             -200               0             -200               0
1.41584               -0.1284642       -16.97369        -52.11685        48.49241             -200               0             -200               0
1.42244               -0.1319396       -17.12743          -51.906        45.10561             -200               0             -200               0
1.42904               -0.1355711       -17.28322        -51.69597        41.77099             -200               0             -200               0
1.43564               -0.1393714       -17.44105        -51.48566        38.48719             -200               0             -200               0
1.44224               -0.1433523       -17.60086        -51.27403        35.25204             -200               0             -200               0
1.44884               -0.1475225       -17.76261        -51.06006        32.06254             -200               0             -200               0
1.45545                -0.151891       -17.92626        -50.84278         28.9149             -200               0             -200               0
1.46205               -0.1564614       -18.09174        -50.62132        25.80455             -200               0             -200               0
1.46865               -0.1612376       -18.25901        -50.39491        22.72624             -200               0             -200               0
1.47525               -0.1662203         -18.428        -50.16288         19.6741             -200               0             -200               0
1.48185               -0.1714076       -18.59867         -49.9247        16.64176             -200               0             -200               0
1.48845               -0.1767954       -18.77098        -49.67997         13.6225             -200               0             -200               0
1.49505               -0.1823789        -18.9449        -49.42844         10.6094             -200               0             -200               0
1.50165               -0.1881498       -19.12041        -49.17003        7.595461             -200               0             -200               0
1.50825               -0.1941003       -19.29752        -48.90479        4.573826             -200               0             -200               0
1.51485               -0.2002189       -19.47623        -48.63291        1.537891             -200               0             -200               0
1.52145               -0.2064964       -19.65659        -48.35472       -1.518543             -200               0             -200               0
1.52805               -0.2129234       -19.83864        -48.07068       -4.601149             -200               0             -200               0
1.53465               -0.2194879       -20.02246        -47.78131       -7.714975             -200               0             -200               0
1.54125               -0.2261812       -20.20814        -47.48725       -10.86439             -200               0             -200               0
1.54785               -0.2329956       -20.39578        -47.18917         -14.053             -200               0             -200               0
1.55446               -0.2399239       -20.58553         -46.8878       -17.28371             -200               0             -200               0
1.56106               -0.2469635       -20.77753        -46.58388       -20.55864             -200               0             -200               0
1.56766               -0.2541114       -20.97192        -46.27817        -23.8792             -200               0             -200               0
1.57426               -0.2613699        -21.1689        -45.97139       -27.24614             -200               0             -200               0
1.58086               -0.2687433       -21.36863        -45.66428       -30.65959             -200               0             -200               0
1.58746               -0.2762407        -21.5713         -45.3575        -34.1191             -200               0             -200               0
1.59406               -0.2838733        -21.7771         -45.0517       -37.62373             -200               0             -200               0
1.60066               -0.2916544       -21.98622        -44.74747       -41.17213             -200               0             -200               0
1.60726               -0.2996062       -22.19883        -44.44535       -44.76257             -200               0             -200               0
1.61386               -0.3077507       -22.41513        -44.14584       -48.39303             -200               0             -200               0
1.62046               -0.3161105       -22.63525        -43.84935       -52.06123             -200               0             -200               0
1.62706                -0.324716       -22.85937        -43.55628       -55.76473             -200               0             -200               0
1.63366               -0.3335989       -23.08761        -43.26694       -59.50092             -200               0             -200               0
1.64026               -0.3427902       -23.32007        -42.98159       -63.26711             -200               0             -200               0
1.64686               -0.3523262       -23.55687        -42.70047       -67.06053             -200               0             -200               0
1.65347               -0.3622432       -23.79806        -42.42373        -70.8784             -200               0             -200               0
1.66007               -0.3725782        -24.0437        -42.15149       -74.71794             -200               0             -200               0
1.66667               -0.3833666       -24.29382        -41.88385       -78.57636             -200               0             -200               0
1.67327               -0.3946449       -24.54842        -41.62082       -82.45097             -200               0             -200               0
1.67987               -0.4064496       -24.80747        -41.36242        -86.3391             -200               0             -200               0
1.68647               -0.4188125       -25.07097        -41.10859       -90.23818             -200               0             -200               0
1.69307               -0.4317668       -25.33883        -40.85926       -94.14573             -200               0             -200               0
1.69967               -0.4453418       -25.61101        -40.61432        -98.0594             -200               0             -200               0
1.70627               -0.4595646       -25.88744        -40.37364       -101.9769             -200               0             -200               0
1.71287                -0.474459       -26.16802        -40.13703       -105.8963             -200               0             -200               0
1.71947               -0.4900458       -26.45267        -39.90432       -109.8154             -200               0             -200               0
1.72607               -0.5063428       -26.74131        -39.67528       -113.7325             -200               0             -200               0
1.73267                -0.523364       -27.03387        -39.44966       -117.6459             -200               0             -200               0
1.73927               -0.5411227       -27.33026         -39.2272       -121.5543             -200               0             -200               0
1.74587               -0.5596282       -27.63045        -39.00762       -125.4563             -200               0             -200               0
1.75248               -0.5788864       -27.93439        -38.79062       -129.3509             -200               0             -200               0
1.75908               -0.5989041       -28.24206        -38.57589       -133.2371             -200               0             -200               0
1.76568               -0.6196832       -28.55346        -38.36312       -137.1145             -200               0             -200               0
1.77228               -0.6412282       -28.86865        -38.15196       -140.9824             -200               0             -200               0
1.77888               -0.6635432       -29.18765        -37.94208       -144.8408             -200               0             -200               0
1.78548               -0.6866301       -29.51058        -37.73315       -148.6896             -200               0             -200               0
1.79208               -0.7104947       -29.83756        -37.52483       -152.5292             -200               0             -200               0
1.79868               -0.7351448       -30.16872         -37.3168         -156.36             -200               0             -200               0
1.80528                -0.760592       -30.50426        -37.10874       -160.1828             -200               0             -200               0
1.81188               -0.7868501       -30.84437        -36.90033       -163.9985             -200               0             -200               0
1.81848               -0.8139379       -31.18929         -36.6913       -167.8084             -200               0             -200               0
1.82508               -0.8418793       -31.53927        -36.48137       -171.6139             -200               0             -200               0
1.83168               -0.8707056       -31.89458         -36.2703       -175.4164             -200               0             -200               0
1.83828               -0.9004535        -32.2555        -36.05788       -179.2178             -200               0             -200               0
1.84488               -0.9311658       -32.62234        -35.84391        176.9799             -200               0             -200               0
1.85149               -0.9628941       -32.99538        -35.62825        173.1749             -200               0             -200               0
1.85809               -0.9956968       -33.37492        -35.41079        169.3649             -200               0             -200               0
1.86469                 -1.02964       -33.76125        -35.19143        165.5478             -200               0             -200               0
1.87129                -1.064799       -34.15464        -34.97014        161.7213             -200               0             -200               0
1.87789                -1.101254       -34.55533         -34.7469        157.8831             -200               0             -200               0
1.88449                -1.139095       -34.96357        -34.52176        154.0311             -200               0             -200               0
1.89109                -1.178417       -35.37954        -34.29477        150.1629             -200               0             -200               0
1.89769                -1.219323       -35.80341        -34.06603        146.2766             -200               0             -200               0
1.90429                -1.261924        -36.2353        -33.83569          142.37             -200               0             -200               0
1.91089                -1.306333       -36.67529        -33.60389        138.4413             -200               0             -200               0
1.91749                -1.352671        -37.1234        -33.37083        134.4886             -200               0             -200               0
1.92409                -1.401062       -37.57961        -33.13672        130.5104             -200               0             -200               0
1.93069                -1.451633       -38.04385        -32.90179        126.5052             -200               0             -200               0
1.93729                -1.504515       -38.51599        -32.66629        122.4718             -200               0             -200               0
1.94389                -1.559841       -38.99585        -32.43048        118.4089             -200               0             -200               0
1.9505                 -1.617746       -39.48319        -32.19463        114.3158             -200               0             -200               0
1.9571                 -1.678364       -39.97772        -31.95901        110.1915             -200               0             -200               0
1.9637                 -1.741831       -40.47911        -31.72392        106.0357             -200               0             -200               0
1.9703                 -1.808284       -40.98694        -31.48963        101.8477             -200               0             -200               0
1.9769                 -1.877856       -41.50078        -31.25641        97.62744             -200               0             -200               0
1.9835                  -1.95068       -42.02014        -31.02456        93.37477             -200               0             -200               0
1.9901                 -2.026889        -42.5445        -30.79432        89.08972             -200               0             -200               0
1.9967                 -2.106615       -43.07327        -30.56598        84.77247             -200               0             -200               0
2.0033                 -2.189984       -43.60583        -30.33977        80.42332             -200               0             -200               0
2.0099                 -2.277126       -44.14156        -30.11595        76.04266             -200               0             -200               0
2.0165                 -2.368167       -44.67976        -29.89475          71.631             -200               0             -200               0
2.0231                 -2.463231       -45.21974        -29.67639        67.18892             -200               0             -200               0
2.0297                 -2.562443       -45.76076        -29.46107        62.71707             -200               0             -200               0
2.0363                 -2.665927       -46.30206        -29.24901        58.21618             -200               0             -200               0
2.0429                 -2.773807       -46.84287        -29.04037        53.68703             -200               0             -200               0
2.0495                  -2.88621       -47.38237        -28.83534        49.13045             -200               0             -200               0
2.05611                -3.003263       -47.91975        -28.63408        44.54732             -200               0             -200               0
2.06271                -3.125097       -48.45417        -28.43673        39.93851             -200               0             -200               0
2.06931                -3.251846       -48.98474        -28.24345        35.30496             -200               0             -200               0
2.07591                -3.383649       -49.51057        -28.05435        30.64762             -200               0             -200               0
2.08251                -3.520652       -50.03072        -27.86956        25.96742             -200               0             -200               0
2.08911                -3.663011       -50.54422        -27.68919        21.26536             -200               0             -200               0
2.09571                -3.810883       -51.05007        -27.51334        16.54238             -200               0             -200               0
2.10231                -3.964442       -51.54718        -27.34209        11.79947             -200               0             -200               0
2.10891                -4.123872       -52.03442        -27.17554        7.037604             -200               0             -200               0
2.11551                -4.289368       -52.51059        -27.01375        2.257742             -200               0             -200               0
2.12211                -4.461137       -52.97438         -26.8568       -2.539151             -200               0             -200               0
2.12871                -4.639409       -53.42437        -26.70475       -7.352118             -200               0             -200               0
2.13531                 -4.82442       -53.85904        -26.55766       -12.18022             -200               0             -200               0
2.14191                -5.016433       -54.27668        -26.41557        -17.0225             -200               0             -200               0
2.14851                -5.215722       -54.67541        -26.27854       -21.87806             -200               0             -200               0
2.15512                -5.422587       -55.05319        -26.14659       -26.74596             -200               0             -200               0
2.16172                -5.637345       -55.40767        -26.01977       -31.62531             -200               0             -200               0
2.16832                -5.860334       -55.73626         -25.8981        -36.5152             -200               0             -200               0
2.17492                -6.091912       -56.03605        -25.78162       -41.41477             -200               0             -200               0
2.18152                -6.332461       -56.30372        -25.67034       -46.32313             -200               0             -200               0
2.18812                -6.582379       -56.53555        -25.56429       -51.23942             -200               0             -200               0
2.19472                -6.842083       -56.72732        -25.46348        -56.1628             -200               0             -200               0
2.20132                -7.112007       -56.87421        -25.36793       -61.09242             -200               0             -200               0
2.20792                -7.392595       -56.97077        -25.27765       -66.02745             -200               0             -200               0
2.21452                -7.684296       -57.01077        -25.19265       -70.96706             -200               0             -200               0
2.22112                -7.987558        -56.9871        -25.11293       -75.91044             -200               0             -200               0
2.22772                -8.302818       -56.89166        -25.03849       -80.85677             -200               0             -200               0
2.23432                -8.630479       -56.71518        -24.96935       -85.80526             -200               0             -200               0
2.24092                -8.970897       -56.44707        -24.90549       -90.75509             -200               0             -200               0
2.24752                -9.324352        -56.0752        -24.84691       -95.70548             -200               0             -200               0
2.25413                -9.691009       -55.58576        -24.79362       -100.6556             -200               0             -200               0
2.26073                -10.07086       -54.96299         -24.7456       -105.6047             -200               0             -200               0
2.26733                -10.46367       -54.18897        -24.70285        -110.552             -200               0             -200               0
2.27393                -10.86888       -53.24345        -24.66535       -115.4967             -200               0             -200               0
2.28053                -11.28549       -52.10376         -24.6331        -120.438             -200               0             -200               0
2.28713                -11.71192       -50.74476        -24.60607       -125.3752             -200               0             -200               0
2.29373                 -12.1458        -49.1391        -24.58426       -130.3073             -200               0             -200               0