! TOUCHSTONE file generated by CST MICROWAVE STUDIO
! Date and time: Tue Mar 18 00:02:17 2025
! Project name: oblique.cst
! Parameters = {Tilt=40; Fracture=1; B=10; D=160; F=15; Feed=2.85625; L=100; M=10; R=0.384908; S=2; Theta=270; length=57.125; wave=114.25}
! Header version: 2024
! Port assignment regex: !\s*Touchstone port\s*([0-9]+)\s*=\s*(CST MWS port|CST DES external port|CST DES block port)\s*(.+)\s* \(\"(.*)\"\)(\s*mode\s*([0-9]+))?.*
! Touchstone port assignment:
! Touchstone port 1 = CST MWS port 1 ("")
! Touchstone port 2 = CST MWS port 2 ("")
# GHz S DB R 50
1                    -0.01910053       -9.785428        -70.33983       -145.1482             -200               0             -200               0
1.00658              -0.01983711        -9.87383        -70.08796        -148.354             -200               0             -200               0
1.01316              -0.02061293        -9.96269         -69.8529       -151.5236             -200               0             -200               0
1.01974               -0.0214232         -10.052        -69.63349       -154.6449             -200               0             -200               0
1.02632              -0.02226415       -10.14175         -69.4284       -157.7066             -200               0             -200               0
1.03289              -0.02313452       -10.23194         -69.2362       -160.6979             -200               0             -200               0
1.03947              -0.02402771       -10.32258        -69.05526       -163.6089             -200               0             -200               0
1.04605              -0.02494049       -10.41366        -68.88377       -166.4305             -200               0             -200               0
1.05263              -0.02586847       -10.50522        -68.71975       -169.1547             -200               0             -200               0
1.05921              -0.02680763       -10.59725        -68.56103       -171.7745             -200               0             -200               0
1.06579              -0.02775432        -10.6898        -68.40522       -174.2849             -200               0             -200               0
1.07237              -0.02870568       -10.78289        -68.24977       -176.6827             -200               0             -200               0
1.07895              -0.02965882       -10.87655        -68.09198       -178.9667             -200               0             -200               0
1.08553              -0.03061169       -10.97083        -67.92906        178.8613             -200               0             -200               0
1.09211              -0.03156315       -11.06575        -67.75818        176.7966             -200               0             -200               0
1.09868               -0.0325131       -11.16137        -67.57658        174.8314             -200               0             -200               0
1.10526              -0.03346119       -11.25774        -67.38163        172.9547             -200               0             -200               0
1.11184               -0.0344099       -11.35488        -67.17101        171.1521             -200               0             -200               0
1.11842              -0.03536154       -11.45285        -66.94277        169.4066             -200               0             -200               0
1.125                -0.03631732       -11.55169        -66.69544        167.6988             -200               0             -200               0
1.13158              -0.03728296       -11.65143        -66.42814        166.0078             -200               0             -200               0
1.13816              -0.03826232       -11.75212        -66.14059        164.3119             -200               0             -200               0
1.14474              -0.03925864       -11.85377        -65.83311          162.59             -200               0             -200               0
1.15132              -0.04028082       -11.95643        -65.50663         160.822             -200               0             -200               0
1.15789              -0.04133234       -12.06011        -65.16258        158.9897             -200               0             -200               0
1.16447              -0.04241977       -12.16483        -64.80277        157.0776             -200               0             -200               0
1.17105              -0.04355057        -12.2706        -64.42936        155.0732             -200               0             -200               0
1.17763              -0.04472856       -12.37742        -64.04466        152.9672             -200               0             -200               0
1.18421              -0.04596155       -12.48529        -63.65104        150.7531             -200               0             -200               0
1.19079              -0.04725535       -12.59421        -63.25088        148.4275             -200               0             -200               0
1.19737               -0.0486122       -12.70417        -62.84644        145.9894             -200               0             -200               0
1.20395              -0.05003983       -12.81515        -62.43985          143.44             -200               0             -200               0
1.21053              -0.05153968       -12.92714        -62.03303        140.7825             -200               0             -200               0
1.21711              -0.05311558       -13.04012        -61.62771        138.0211             -200               0             -200               0
1.22368              -0.05476909       -13.15406        -61.22541        135.1613             -200               0             -200               0
1.23026              -0.05650187       -13.26894        -60.82741        132.2093             -200               0             -200               0
1.23684              -0.05831262       -13.38475        -60.43482        129.1719             -200               0             -200               0
1.24342              -0.06020278       -13.50147        -60.04856        126.0558             -200               0             -200               0
1.25                 -0.06217087       -13.61907        -59.66935        122.8681             -200               0             -200               0
1.25658              -0.06421241       -13.73755        -59.29779         119.616             -200               0             -200               0
1.26316              -0.06632615       -13.85689        -58.93432        116.3061             -200               0             -200               0
1.26974              -0.06850767        -13.9771        -58.57927        112.9454             -200               0             -200               0
1.27632              -0.07075427       -14.09817        -58.23285        109.5402             -200               0             -200               0
1.28289              -0.07305958       -14.22013        -57.89519        106.0967             -200               0             -200               0
1.28947              -0.07542234       -14.34297        -57.56633        102.6209             -200               0             -200               0
1.29605              -0.07783463       -14.46672        -57.24623        99.11845             -200               0             -200               0
1.30263              -0.08029449       -14.59142         -56.9348        95.59461             -200               0             -200               0
1.30921              -0.08279661        -14.7171        -56.63188        92.05443             -200               0             -200               0
1.31579              -0.08533799       -14.84379        -56.33728        88.50264             -200               0             -200               0
1.32237              -0.08791634       -14.97156        -56.05074        84.94367             -200               0             -200               0
1.32895              -0.09052974       -15.10045        -55.77196        81.38168             -200               0             -200               0
1.33553              -0.09317598       -15.23051        -55.50063         77.8205             -200               0             -200               0
1.34211              -0.09585474       -15.36181        -55.23638         74.2637             -200               0             -200               0
1.34868              -0.09856615       -15.49442        -54.97881        70.71454             -200               0             -200               0
1.35526               -0.1013145       -15.62839        -54.72751        67.17601             -200               0             -200               0
1.36184               -0.1041001       -15.76379        -54.48203        63.65076             -200               0             -200               0
1.36842                -0.106927       -15.90069         -54.2419        60.14118             -200               0             -200               0
1.375                 -0.1098011       -16.03914        -54.00664        56.64931             -200               0             -200               0
1.38158               -0.1127265       -16.17921        -53.77573        53.17689             -200               0             -200               0
1.38816               -0.1157102       -16.32095        -53.54866        49.72533             -200               0             -200               0
1.39474               -0.1187608       -16.46441         -53.3249        46.29569             -200               0             -200               0
1.40132               -0.1218829       -16.60965        -53.10392         42.8887             -200               0             -200               0
1.40789               -0.1250883        -16.7567        -52.88519        39.50473             -200               0             -200               0
1.41447               -0.1283826        -16.9056        -52.66817        36.14379             -200               0             -200               0
1.42105               -0.1317751       -17.05639        -52.45234        32.80554             -200               0             -200               0
1.42763               -0.1352762       -17.20908        -52.23719         29.4893             -200               0             -200               0
1.43421               -0.1388916       -17.36369        -52.02225        26.19403             -200               0             -200               0
1.44079               -0.1426304       -17.52025        -51.80704        22.91838             -200               0             -200               0
1.44737               -0.1464992       -17.67876        -51.59115        19.66066             -200               0             -200               0
1.45395               -0.1505062       -17.83925        -51.37419        16.41894             -200               0             -200               0
1.46053               -0.1546569       -18.00169         -51.1558        13.19101             -200               0             -200               0
1.46711               -0.1589565       -18.16612         -50.9357        9.974445             -200               0             -200               0
1.47368               -0.1634092       -18.33252        -50.71364         6.76667             -200               0             -200               0
1.48026               -0.1680215       -18.50091        -50.48942        3.564967             -200               0             -200               0
1.48684                -0.172793       -18.67129         -50.2629       0.3665426             -200               0             -200               0
1.49342               -0.1777282       -18.84369        -50.03401        -2.83142             -200               0             -200               0
1.5                   -0.1828282        -19.0181        -49.80271       -6.031721             -200               0             -200               0
1.50658               -0.1880936       -19.19455        -49.56904       -9.237083             -200               0             -200               0
1.51316               -0.1935251       -19.37307        -49.33309       -12.45012             -200               0             -200               0
1.51974               -0.1991239        -19.5537        -49.09496       -15.67328             -200               0             -200               0
1.52632                 -0.20489       -19.73647        -48.85483       -18.90883             -200               0             -200               0
1.53289               -0.2108233       -19.92144        -48.61292       -22.15879             -200               0             -200               0
1.53947               -0.2169241       -20.10866        -48.36945       -25.42495             -200               0             -200               0
1.54605               -0.2231935        -20.2982        -48.12468       -28.70883             -200               0             -200               0
1.55263               -0.2296338       -20.49013        -47.87891       -32.01166             -200               0             -200               0
1.55921               -0.2362452       -20.68454        -47.63241       -35.33442             -200               0             -200               0
1.56579               -0.2430354       -20.88151        -47.38551       -38.67775             -200               0             -200               0
1.57237               -0.2500049       -21.08115        -47.13849       -42.04207             -200               0             -200               0
1.57895               -0.2571614       -21.28354        -46.89165       -45.42751             -200               0             -200               0
1.58553               -0.2645109       -21.48881        -46.64528       -48.83395             -200               0             -200               0
1.59211               -0.2720643       -21.69705        -46.39966       -52.26104             -200               0             -200               0
1.59868               -0.2798322       -21.90838        -46.15506       -55.70821             -200               0             -200               0
1.60526               -0.2878237       -22.12291         -45.9117       -59.17471             -200               0             -200               0
1.61184               -0.2960552       -22.34075        -45.66981       -62.65961             -200               0             -200               0
1.61842               -0.3045422       -22.56201        -45.42959       -66.16182             -200               0             -200               0
1.625                 -0.3132999       -22.78681         -45.1912       -69.68015             -200               0             -200               0
1.63158               -0.3223481       -23.01523        -44.95477       -73.21329             -200               0             -200               0
1.63816               -0.3317066       -23.24739        -44.72044       -76.75985             -200               0             -200               0
1.64474               -0.3413962       -23.48336        -44.48827       -80.31839             -200               0             -200               0
1.65132               -0.3514379       -23.72324        -44.25833       -83.88742             -200               0             -200               0
1.65789               -0.3618562       -23.96711        -44.03064       -87.46546             -200               0             -200               0
1.66447               -0.3726749       -24.21503        -43.80521       -91.05099             -200               0             -200               0
1.67105               -0.3839169       -24.46708        -43.58201       -94.64255             -200               0             -200               0
1.67763               -0.3956079        -24.7233        -43.36098        -98.2387             -200               0             -200               0
1.68421               -0.4077728       -24.98376        -43.14204       -101.8381             -200               0             -200               0
1.69079               -0.4204362       -25.24848         -42.9251       -105.4393             -200               0             -200               0
1.69737               -0.4336243       -25.51752        -42.71001       -109.0412             -200               0             -200               0
1.70395               -0.4473599        -25.7909        -42.49663       -112.6428             -200               0             -200               0
1.71053               -0.4616682       -26.06865         -42.2848       -116.2428             -200               0             -200               0
1.71711               -0.4765751       -26.35081        -42.07431       -119.8406             -200               0             -200               0
1.72368               -0.4921018       -26.63741        -41.86498       -123.4354             -200               0             -200               0
1.73026                -0.508273       -26.92846        -41.65658       -127.0267             -200               0             -200               0
1.73684               -0.5251127       -27.22401        -41.44887        -130.614             -200               0             -200               0
1.74342               -0.5426439       -27.52409        -41.24164       -134.1972             -200               0             -200               0
1.75                  -0.5608894       -27.82873        -41.03462       -137.7761             -200               0             -200               0
1.75658               -0.5798728       -28.13798        -40.82757       -141.3511             -200               0             -200               0
1.76316               -0.5996187        -28.4519        -40.62026       -144.9223             -200               0             -200               0
1.76974               -0.6201502       -28.77053        -40.41243       -148.4905             -200               0             -200               0
1.77632               -0.6414932       -29.09394        -40.20386       -152.0562             -200               0             -200               0
1.78289                -0.663673       -29.42221        -39.99431       -155.6205             -200               0             -200               0
1.78947               -0.6867202       -29.75542        -39.78359       -159.1843             -200               0             -200               0
1.79605               -0.7106627       -30.09366        -39.57149        -162.749             -200               0             -200               0
1.80263               -0.7355322       -30.43702        -39.35785       -166.3161             -200               0             -200               0
1.80921               -0.7613626       -30.78562        -39.14252       -169.8869             -200               0             -200               0
1.81579               -0.7881919       -31.13955        -38.92538       -173.4633             -200               0             -200               0
1.82237               -0.8160591       -31.49894        -38.70632       -177.0469             -200               0             -200               0
1.82895               -0.8450069       -31.86389        -38.48529        179.3604             -200               0             -200               0
1.83553               -0.8750816       -32.23453        -38.26224        175.7566             -200               0             -200               0
1.84211               -0.9063338       -32.61097        -38.03716        172.1399             -200               0             -200               0
1.84868               -0.9388167       -32.99333        -37.81009        168.5084             -200               0             -200               0
1.85526               -0.9725896        -33.3817        -37.58108        164.8601             -200               0             -200               0
1.86184                -1.007712       -33.77618        -37.35021        161.1933             -200               0             -200               0
1.86842                -1.044251       -34.17686         -37.1176         157.506             -200               0             -200               0
1.875                  -1.082277       -34.58381        -36.88338        153.7966             -200               0             -200               0
1.88158                -1.121861       -34.99709        -36.64771        150.0636             -200               0             -200               0
1.88816                -1.163084       -35.41673        -36.41078        146.3054             -200               0             -200               0
1.89474                -1.206025       -35.84275        -36.17279        142.5206             -200               0             -200               0
1.90132                 -1.25077       -36.27515        -35.93396        138.7081             -200               0             -200               0
1.90789                -1.297408       -36.71388        -35.69452        134.8668             -200               0             -200               0
1.91447                -1.346028       -37.15891        -35.45472        130.9959             -200               0             -200               0
1.92105                -1.396727       -37.61013        -35.21481        127.0944             -200               0             -200               0
1.92763                -1.449601       -38.06742        -34.97503        123.1619             -200               0             -200               0
1.93421                 -1.50475       -38.53064        -34.73566        119.1979             -200               0             -200               0
1.94079                -1.562277       -38.99962        -34.49694         115.202             -200               0             -200               0
1.94737                -1.622284       -39.47414        -34.25914        111.1741             -200               0             -200               0
1.95395                -1.684877       -39.95397        -34.02251        107.1142             -200               0             -200               0
1.96053                -1.750163        -40.4388        -33.78729        103.0224             -200               0             -200               0
1.96711                -1.818251       -40.92836        -33.55372        98.89873             -200               0             -200               0
1.97368                 -1.88925       -41.42228        -33.32205        94.74365             -200               0             -200               0
1.98026                -1.963272       -41.92021        -33.09249         90.5575             -200               0             -200               0
1.98684                -2.040425       -42.42172        -32.86525        86.34078             -200               0             -200               0
1.99342                -2.120825       -42.92639        -32.64055        82.09404             -200               0             -200               0
2                      -2.204585       -43.43375        -32.41857        77.81791             -200               0             -200               0
2.00658                -2.291819        -43.9433         -32.1995        73.51309             -200               0             -200               0
2.01316                -2.382643       -44.45452        -31.98352         69.1803             -200               0             -200               0
2.01974                -2.477175       -44.96684        -31.77077        64.82033             -200               0             -200               0
2.02632                -2.575534       -45.47967        -31.56142        60.43401             -200               0             -200               0
2.03289                 -2.67784       -45.99241         -31.3556        56.02216             -200               0             -200               0
2.03947                -2.784218        -46.5044        -31.15345        51.58568             -200               0             -200               0
2.04605                -2.894792       -47.01495        -30.95508        47.12544             -200               0             -200               0
2.05263                -3.009693       -47.52335         -30.7606        42.64235             -200               0             -200               0
2.05921                -3.129054       -48.02885        -30.57013        38.13732             -200               0             -200               0
2.06579                -3.253011       -48.53066        -30.38374        33.61127             -200               0             -200               0
2.07237                -3.381707       -49.02794        -30.20153        29.06511             -200               0             -200               0
2.07895                 -3.51529        -49.5198        -30.02358        24.49978             -200               0             -200               0
2.08553                -3.653914        -50.0053        -29.84994        19.91618             -200               0             -200               0
2.09211                 -3.79774       -50.48347         -29.6807        15.31522             -200               0             -200               0
2.09868                -3.946937       -50.95323        -29.51589        10.69781             -200               0             -200               0
2.10526                -4.101681       -51.41343        -29.35558        6.064844             -200               0             -200               0
2.11184                -4.262159       -51.86287        -29.19981        1.417209             -200               0             -200               0
2.11842                -4.428567       -52.30022        -29.04861       -3.244222             -200               0             -200               0
2.125                  -4.601111       -52.72404        -28.90203        -7.91858             -200               0             -200               0
2.13158                -4.780009       -53.13278        -28.76008       -12.60502             -200               0             -200               0
2.13816                -4.965492       -53.52474         -28.6228       -17.30269             -200               0             -200               0
2.14474                  -5.1578       -53.89805        -28.49021       -22.01077             -200               0             -200               0
2.15132                -5.357189       -54.25066        -28.36232       -26.72843             -200               0             -200               0
2.15789                -5.563927       -54.58028        -28.23915       -31.45488             -200               0             -200               0
2.16447                -5.778292       -54.88445        -28.12071       -36.18933             -200               0             -200               0
2.17105                -6.000582       -55.16036          -28.007       -40.93098             -200               0             -200               0
2.17763                  -6.2311        -55.4049        -27.89804       -45.67908             -200               0             -200               0
2.18421                -6.470163       -55.61465        -27.79381       -50.43285             -200               0             -200               0
2.19079                -6.718098       -55.78573        -27.69432       -55.19156             -200               0             -200               0
2.19737                -6.975238       -55.91381        -27.59956       -59.95447             -200               0             -200               0
2.20395                -7.241921       -55.99405        -27.50954       -64.72085             -200               0             -200               0
2.21053                -7.518481       -56.02099        -27.42423       -69.48997             -200               0             -200               0
2.21711                -7.805249       -55.98848        -27.34363       -74.26114             -200               0             -200               0
2.22368                -8.102531       -55.88962        -27.26773       -79.03365             -200               0             -200               0
2.23026                -8.410615       -55.71659        -27.19651       -83.80681             -200               0             -200               0
2.23684                -8.729736       -55.46057        -27.12996       -88.57993             -200               0             -200               0
2.24342                -9.060065       -55.11164        -27.06805       -93.35233             -200               0             -200               0
2.25                   -9.401681       -54.65855        -27.01076       -98.12335             -200               0             -200               0
2.25658                -9.754535       -54.08868        -26.95808       -102.8923             -200               0             -200               0
2.26316                 -10.1184       -53.38784        -26.90997       -107.6586             -200               0             -200               0
2.26974                -10.49281       -52.54015        -26.86641       -112.4215             -200               0             -200               0
2.27632                -10.87699       -51.52799        -26.82737       -117.1804             -200               0             -200               0
2.28289                -11.26975       -50.33197        -26.79282       -121.9346             -200               0             -200               0
2.28947                -11.66938       -48.93108        -26.76272       -126.6836             -200               0             -200               0