! TOUCHSTONE file generated by CST MICROWAVE STUDIO
! Date and time: Tue Mar 18 00:02:32 2025
! Project name: oblique.cst
! Parameters = {Tilt=40; Fracture=1; B=12.5; D=160; F=5; Feed=2.85625; L=100; M=30; R=0.384908; S=1; Theta=270; length=57.125; wave=114.25}
! Header version: 2024
! Port assignment regex: !\s*Touchstone port\s*([0-9]+)\s*=\s*(CST MWS port|CST DES external port|CST DES block port)\s*(.+)\s* \(\"(.*)\"\)(\s*mode\s*([0-9]+))?.*
! Touchstone port assignment:
! Touchstone port 1 = CST MWS port 1 ("")
! Touchstone port 2 = CST MWS port 2 ("")
# GHz S DB R 50
1                    -0.02080837       -9.858768        -67.52292       -175.0908             -200               0             -200               0
1.0066               -0.02165373       -9.947853        -67.49655       -179.9445             -200               0             -200               0
1.0132               -0.02253075       -10.03735        -67.49982        175.3113             -200               0             -200               0
1.0198               -0.02343558       -10.12726        -67.53287        170.6898             -200               0             -200               0
1.0264               -0.02436324       -10.21759        -67.59583        166.2063             -200               0             -200               0
1.033                 -0.0253095       -10.30833        -67.68882        161.8787             -200               0             -200               0
1.0396                -0.0262695       -10.39951        -67.81186        157.7284             -200               0             -200               0
1.0462               -0.02723879       -10.49114        -67.96479        153.7805             -200               0             -200               0
1.05281              -0.02821367       -10.58325         -68.1471        150.0644             -200               0             -200               0
1.05941              -0.02919137       -10.67587        -68.35776        146.6148             -200               0             -200               0
1.06601              -0.03016686       -10.76903        -68.59493         143.472             -200               0             -200               0
1.07261              -0.03113862       -10.86277        -68.85557        140.6821             -200               0             -200               0
1.07921              -0.03210602       -10.95714        -69.13494        138.2967             -200               0             -200               0
1.08581              -0.03306734       -11.05217        -69.42595         136.371             -200               0             -200               0
1.09241              -0.03402332       -11.14792        -69.71837        134.9606             -200               0             -200               0
1.09901              -0.03497475       -11.24443        -69.99815        134.1137             -200               0             -200               0
1.10561              -0.03592344       -11.34175        -70.24696        133.8607             -200               0             -200               0
1.11221              -0.03687209       -11.43991        -70.44254        134.1986             -200               0             -200               0
1.11881              -0.03782528       -11.53896        -70.56043        135.0746             -200               0             -200               0
1.12541              -0.03878695       -11.63894        -70.57738        136.3745             -200               0             -200               0
1.13201              -0.03976232       -11.73988        -70.47599        137.9243             -200               0             -200               0
1.13861              -0.04075764       -11.84181        -70.24913         139.511             -200               0             -200               0
1.14521              -0.04177794       -11.94475        -69.90184        140.9186             -200               0             -200               0
1.15182              -0.04282986       -12.04872        -69.44991        141.9651             -200               0             -200               0
1.15842              -0.04391975       -12.15373        -68.91575        142.5266             -200               0             -200               0
1.16502              -0.04505407       -12.25978         -68.3237        142.5412             -200               0             -200               0
1.17162              -0.04623856       -12.36688        -67.69628        141.9997             -200               0             -200               0
1.17822              -0.04747851         -12.475        -67.05225        140.9287             -200               0             -200               0
1.18482              -0.04877891       -12.58416        -66.40608        139.3753             -200               0             -200               0
1.19142              -0.05014482       -12.69432        -65.76827         137.395             -200               0             -200               0
1.19802              -0.05157894       -12.80547         -65.1461        135.0443             -200               0             -200               0
1.20462              -0.05308393       -12.91759        -64.54432        132.3766             -200               0             -200               0
1.21122              -0.05466201       -13.03065        -63.96588          129.44             -200               0             -200               0
1.21782              -0.05631292       -13.14464        -63.41244         126.277             -200               0             -200               0
1.22442              -0.05803717       -13.25953        -62.88477        122.9244             -200               0             -200               0
1.23102              -0.05983236       -13.37529        -62.38301        119.4141             -200               0             -200               0
1.23762              -0.06169724       -13.49193        -61.90694        115.7735             -200               0             -200               0
1.24422              -0.06362857       -13.60941        -61.45606        112.0263             -200               0             -200               0
1.25083              -0.06562172       -13.72774        -61.02973        108.1929             -200               0             -200               0
1.25743              -0.06767281       -13.84691         -60.6272        104.2914             -200               0             -200               0
1.26403              -0.06977733       -13.96693        -60.24767        100.3375             -200               0             -200               0
1.27063              -0.07192919       -14.08782        -59.89034        96.34517             -200               0             -200               0
1.27723              -0.07412388       -14.20959        -59.55437        92.32688             -200               0             -200               0
1.28383               -0.0763552       -14.33228        -59.23895        88.29401             -200               0             -200               0
1.29043              -0.07861944       -14.45591        -58.94326        84.25692             -200               0             -200               0
1.29703              -0.08091127       -14.58053        -58.66648        80.22523             -200               0             -200               0
1.30363              -0.08322684       -14.70621         -58.4078        76.20789             -200               0             -200               0
1.31023               -0.0855624       -14.83298         -58.1664        72.21341             -200               0             -200               0
1.31683              -0.08791766       -14.96092        -57.94145        68.24983             -200               0             -200               0
1.32343              -0.09028985       -15.09009        -57.73209        64.32491             -200               0             -200               0
1.33003              -0.09267938       -15.22057        -57.53742        60.44611             -200               0             -200               0
1.33663              -0.09508743       -15.35242        -57.35652        56.62063             -200               0             -200               0
1.34323              -0.09751646       -15.48573        -57.18837        52.85547             -200               0             -200               0
1.34984              -0.09996992       -15.62055        -57.03194        49.15734             -200               0             -200               0
1.35644               -0.1024533       -15.75698        -56.88605        45.53267             -200               0             -200               0
1.36304               -0.1049709       -15.89508        -56.74947        41.98755             -200               0             -200               0
1.36964               -0.1075325       -16.03491        -56.62085        38.52762             -200               0             -200               0
1.37624               -0.1101435       -16.17653        -56.49874        35.15793             -200               0             -200               0
1.38284               -0.1128145       -16.32001        -56.38153        31.88283             -200               0             -200               0
1.38944                -0.115554       -16.46539        -56.26754        28.70576             -200               0             -200               0
1.39604               -0.1183716        -16.6127        -56.15494        25.62907             -200               0             -200               0
1.40264                -0.121278         -16.762        -56.04181        22.65379             -200               0             -200               0
1.40924                -0.124282       -16.91331        -55.92613        19.77938             -200               0             -200               0
1.41584               -0.1273951       -17.06664        -55.80586        17.00356             -200               0             -200               0
1.42244               -0.1306257       -17.22202        -55.67893        14.32213             -200               0             -200               0
1.42904               -0.1339839       -17.37946        -55.54333        11.72878             -200               0             -200               0
1.43564               -0.1374772       -17.53896        -55.39716        9.215131             -200               0             -200               0
1.44224                -0.141113       -17.70052        -55.23869        6.770735             -200               0             -200               0
1.44884               -0.1448979       -17.86414        -55.06643        4.383268             -200               0             -200               0
1.45545                -0.148839       -18.02982        -54.87921        2.038821             -200               0             -200               0
1.46205               -0.1529385       -18.19756        -54.67619        -0.27769             -200               0             -200               0
1.46865               -0.1572024       -18.36736        -54.45697       -2.582028             -200               0             -200               0
1.47525               -0.1616317       -18.53922        -54.22151       -4.890082             -200               0             -200               0
1.48185               -0.1662277       -18.71314        -53.97021       -7.217309             -200               0             -200               0
1.48845                -0.170993       -18.88915        -53.70381       -9.578212             -200               0             -200               0
1.49505               -0.1759265       -19.06725        -53.42341       -11.98588             -200               0             -200               0
1.50165               -0.1810278       -19.24748        -53.13034       -14.45166             -200               0             -200               0
1.50825               -0.1862964       -19.42988        -52.82617       -16.98491             -200               0             -200               0
1.51485               -0.1917316       -19.61449        -52.51256       -19.59292             -200               0             -200               0
1.52145               -0.1973327       -19.80136        -52.19128        -22.2809             -200               0             -200               0
1.52805               -0.2030992       -19.99057        -51.86405       -25.05208             -200               0             -200               0
1.53465               -0.2090323       -20.18219        -51.53259        -27.9079             -200               0             -200               0
1.54125               -0.2151331       -20.37631        -51.19852       -30.84817             -200               0             -200               0
1.54785               -0.2214029       -20.57303        -50.86334       -33.87135             -200               0             -200               0
1.55446               -0.2278477       -20.77244        -50.52844       -36.97476             -200               0             -200               0
1.56106               -0.2344712       -20.97466        -50.19504       -40.15482             -200               0             -200               0
1.56766               -0.2412815        -21.1798        -49.86423       -43.40722             -200               0             -200               0
1.57426               -0.2482879       -21.38799        -49.53697       -46.72714             -200               0             -200               0
1.58086               -0.2555009       -21.59935        -49.21406       -50.10941             -200               0             -200               0
1.58746               -0.2629332         -21.814        -48.89618       -53.54859             -200               0             -200               0
1.59406               -0.2706019       -22.03207        -48.58386       -57.03913             -200               0             -200               0
1.60066               -0.2785229       -22.25367        -48.27756       -60.57545             -200               0             -200               0
1.60726               -0.2867157       -22.47892         -47.9776       -64.15198             -200               0             -200               0
1.61386                -0.295201       -22.70793        -47.68421       -67.76321             -200               0             -200               0
1.62046               -0.3040027       -22.94081        -47.39755       -71.40379             -200               0             -200               0
1.62706               -0.3131452       -23.17763        -47.11767        -75.0685             -200               0             -200               0
1.63366               -0.3226537        -23.4185        -46.84457       -78.75227             -200               0             -200               0
1.64026               -0.3325561       -23.66346        -46.57817       -82.45026             -200               0             -200               0
1.64686               -0.3428773       -23.91259        -46.31833       -86.15781             -200               0             -200               0
1.65347               -0.3536463       -24.16594        -46.06485       -89.87048             -200               0             -200               0
1.66007               -0.3648935       -24.42353        -45.81748       -93.58409             -200               0             -200               0
1.66667               -0.3766453       -24.68539        -45.57591       -97.29467             -200               0             -200               0
1.67327               -0.3889284       -24.95154        -45.33977       -100.9985             -200               0             -200               0
1.67987               -0.4017717       -25.22197        -45.10867       -104.6923             -200               0             -200               0
1.68647               -0.4152015       -25.49668        -44.88216       -108.3728             -200               0             -200               0
1.69307               -0.4292427       -25.77566        -44.65974       -112.0372             -200               0             -200               0
1.69967               -0.4439197       -26.05889        -44.44089       -115.6831             -200               0             -200               0
1.70627               -0.4592552       -26.34636        -44.22504       -119.3084             -200               0             -200               0
1.71287               -0.4752717       -26.63803         -44.0116       -122.9114             -200               0             -200               0
1.71947               -0.4919882        -26.9339        -43.79993       -126.4907             -200               0             -200               0
1.72607                -0.509424       -27.23394        -43.58939       -130.0456             -200               0             -200               0
1.73267               -0.5275983       -27.53815        -43.37932       -133.5757             -200               0             -200               0
1.73927               -0.5465264       -27.84651        -43.16904       -137.0811             -200               0             -200               0
1.74587               -0.5662241       -28.15905        -42.95789       -140.5624             -200               0             -200               0
1.75248                -0.586708       -28.47578        -42.74519       -144.0207             -200               0             -200               0
1.75908               -0.6079942       -28.79673        -42.53032       -147.4578             -200               0             -200               0
1.76568               -0.6300975       -29.12195        -42.31264       -150.8759             -200               0             -200               0
1.77228               -0.6530329        -29.4515        -42.09159       -154.2777             -200               0             -200               0
1.77888               -0.6768194       -29.78547        -41.86663       -157.6662             -200               0             -200               0
1.78548               -0.7014752       -30.12394         -41.6373       -161.0452             -200               0             -200               0
1.79208               -0.7270205       -30.46704        -41.40321       -164.4186             -200               0             -200               0
1.79868               -0.7534791       -30.81489        -41.16403       -167.7906             -200               0             -200               0
1.80528               -0.7808772       -31.16764        -40.91953       -171.1659             -200               0             -200               0
1.81188               -0.8092437       -31.52544        -40.66956       -174.5491             -200               0             -200               0
1.81848               -0.8386114       -31.88847        -40.41406       -177.9449             -200               0             -200               0
1.82508               -0.8690174        -32.2569        -40.15307        178.6419             -200               0             -200               0
1.83168               -0.9005045       -32.63091         -39.8867        175.2067             -200               0             -200               0
1.83828               -0.9331179        -33.0107        -39.61516         171.745             -200               0             -200               0
1.84488               -0.9669112       -33.39646        -39.33872        168.2527             -200               0             -200               0
1.85149                 -1.00194       -33.78836        -39.05773        164.7259             -200               0             -200               0
1.85809                -1.038268        -34.1866        -38.77259         161.161             -200               0             -200               0
1.86469                -1.075963       -34.59134        -38.48376        157.5549             -200               0             -200               0
1.87129                -1.115097       -35.00275        -38.19173        153.9049             -200               0             -200               0
1.87789                -1.155751       -35.42096        -37.89702        150.2089             -200               0             -200               0
1.88449                -1.198007       -35.84609        -37.60016        146.4648             -200               0             -200               0
1.89109                -1.241959       -36.27826        -37.30172        142.6714             -200               0             -200               0
1.89769                -1.287696       -36.71752        -37.00222        138.8276             -200               0             -200               0
1.90429                -1.335321       -37.16393        -36.70222        134.9328             -200               0             -200               0
1.91089                -1.384938       -37.61748        -36.40225        130.9867             -200               0             -200               0
1.91749                -1.436652       -38.07816        -36.10281        126.9895             -200               0             -200               0
1.92409                -1.490579       -38.54591        -35.80439        122.9415             -200               0             -200               0
1.93069                -1.546831       -39.02065        -35.50746        118.8433             -200               0             -200               0
1.93729                -1.605528       -39.50223        -35.21245        114.6956             -200               0             -200               0
1.94389                -1.666792       -39.99048        -34.91978        110.4996             -200               0             -200               0
1.9505                 -1.730746       -40.48519        -34.62981        106.2564             -200               0             -200               0
1.9571                 -1.797517       -40.98612         -34.3429        101.9673             -200               0             -200               0
1.9637                 -1.867233       -41.49295        -34.05937        97.63362             -200               0             -200               0
1.9703                 -1.940024       -42.00537        -33.77951        93.25691             -200               0             -200               0
1.9769                 -2.016023       -42.52301        -33.50358        88.83866             -200               0             -200               0
1.9835                 -2.095363       -43.04545        -33.23183        84.38047             -200               0             -200               0
1.9901                 -2.178178       -43.57225        -32.96447        79.88389             -200               0             -200               0
1.9967                 -2.264606       -44.10292        -32.70168        75.35055             -200               0             -200               0
2.0033                 -2.354786       -44.63693        -32.44365        70.78203             -200               0             -200               0
2.0099                 -2.448856       -45.17372        -32.19052        66.17991             -200               0             -200               0
2.0165                 -2.546961       -45.71271        -31.94243        61.54576             -200               0             -200               0
2.0231                 -2.649245       -46.25324        -31.69949        56.88111             -200               0             -200               0
2.0297                 -2.755855       -46.79465         -31.4618        52.18749             -200               0             -200               0
2.0363                 -2.866944       -47.33623        -31.22945        47.46636             -200               0             -200               0
2.0429                 -2.982666       -47.87721        -31.00252        42.71916             -200               0             -200               0
2.0495                 -3.103179        -48.4168        -30.78106        37.94728             -200               0             -200               0
2.05611                 -3.22865       -48.95416        -30.56514         33.1521             -200               0             -200               0
2.06271                -3.359249       -49.48839         -30.3548        28.33493             -200               0             -200               0
2.06931                -3.495151       -50.01855        -30.15006        23.49704             -200               0             -200               0
2.07591                -3.636541       -50.54362        -29.95097        18.63968             -200               0             -200               0
2.08251                -3.783614       -51.06254        -29.75754        13.76405             -200               0             -200               0
2.08911                -3.936568       -51.57413        -29.56978        8.871304             -200               0             -200               0
2.09571                 -4.09562       -52.07716        -29.38772        3.962575             -200               0             -200               0
2.10231                -4.260987        -52.5703        -29.21134      -0.9610564             -200               0             -200               0
2.10891                -4.432911       -53.05209        -29.04067       -5.898534             -200               0             -200               0
2.11551                -4.611637       -53.52096        -28.87569       -10.84884             -200               0             -200               0
2.12211                -4.797429       -53.97518         -28.7164       -15.81098             -200               0             -200               0
2.12871                -4.990563       -54.41287        -28.56279         -20.784             -200               0             -200               0
2.13531                -5.191337       -54.83195        -28.41485       -25.76697             -200               0             -200               0
2.14191                -5.400058       -55.23013        -28.27258       -30.75898             -200               0             -200               0
2.14851                -5.617057       -55.60485        -28.13595       -35.75915             -200               0             -200               0
2.15512                -5.842679       -55.95329        -28.00495       -40.76664             -200               0             -200               0
2.16172                -6.077291       -56.27229        -27.87957        -45.7806             -200               0             -200               0
2.16832                -6.321273       -56.55831        -27.75978       -50.80022             -200               0             -200               0
2.17492                -6.575028       -56.80739        -27.64556       -55.82471             -200               0             -200               0
2.18152                -6.838969       -57.01507        -27.53691       -60.85329             -200               0             -200               0
2.18812                -7.113531       -57.17628        -27.43378        -65.8852             -200               0             -200               0
2.19472                -7.399151       -57.28535        -27.33617       -70.91968             -200               0             -200               0
2.20132                -7.696277       -57.33579        -27.24405         -75.956             -200               0             -200               0
2.20792                -8.005354       -57.32027        -27.15739       -80.99345             -200               0             -200               0
2.21452                -8.326811       -57.23041        -27.07618        -86.0313             -200               0             -200               0
2.22112                -8.661052       -57.05668        -27.00039       -91.06886             -200               0             -200               0
2.22772                -9.008432       -56.78818        -26.92999       -96.10542             -200               0             -200               0
2.23432                -9.369228       -56.41246        -26.86495       -101.1403             -200               0             -200               0
2.24092                -9.743608       -55.91533        -26.80526       -106.1728             -200               0             -200               0
2.24752                -10.13157       -55.28053        -26.75088       -111.2023             -200               0             -200               0
2.25413                -10.53286       -54.48961        -26.70178        -116.228             -200               0             -200               0
2.26073                -10.94694       -53.52167        -26.65795       -121.2493             -200               0             -200               0
2.26733                -11.37277       -52.35315        -26.61934       -126.2656             -200               0             -200               0
2.27393                -11.80873       -50.95791        -26.58594       -131.2762             -200               0             -200               0
2.28053                -12.25241       -49.30739         -26.5577       -136.2803             -200               0             -200               0
2.28713                -12.70034       -47.37121        -26.53459       -141.2773             -200               0             -200               0
2.29373                -13.14773       -45.11843        -26.51659       -146.2666             -200               0             -200               0