! TOUCHSTONE file generated by CST MICROWAVE STUDIO
! Date and time: Tue Mar 18 00:01:04 2025
! Project name: oblique.cst
! Parameters = {Tilt=30; Fracture=1; B=10; D=160; F=25; Feed=2.85625; L=100; M=50; R=0.384908; S=1; Theta=90; length=57.125; wave=114.25}
! Header version: 2024
! Port assignment regex: !\s*Touchstone port\s*([0-9]+)\s*=\s*(CST MWS port|CST DES external port|CST DES block port)\s*(.+)\s* \(\"(.*)\"\)(\s*mode\s*([0-9]+))?.*
! Touchstone port assignment:
! Touchstone port 1 = CST MWS port 1 ("")
! Touchstone port 2 = CST MWS port 2 ("")
# GHz S DB R 50
1                    -0.02006531        -9.78085        -68.19934        152.6977             -200               0             -200               0
1.00662              -0.02074324       -9.868713        -68.15764        146.9337             -200               0             -200               0
1.01325              -0.02143137       -9.957143         -68.1464        141.2753             -200               0             -200               0
1.01987              -0.02212831       -10.04616          -68.166        135.7305             -200               0             -200               0
1.02649              -0.02283671       -10.13578        -68.21691        130.3095             -200               0             -200               0
1.03311              -0.02355461       -10.22604        -68.29971        125.0247             -200               0             -200               0
1.03974              -0.02428363       -10.31694        -68.41508        119.8915             -200               0             -200               0
1.04636              -0.02502483       -10.40851         -68.5637        114.9289             -200               0             -200               0
1.05298              -0.02577824       -10.50078        -68.74627          110.16             -200               0             -200               0
1.0596               -0.02654704       -10.59375        -68.96336        105.6131             -200               0             -200               0
1.06623              -0.02733223       -10.68747        -69.21525        101.3228             -200               0             -200               0
1.07285              -0.02813649       -10.78193        -69.50176        97.33097             -200               0             -200               0
1.07947              -0.02896098       -10.87716        -69.82185         93.6887             -200               0             -200               0
1.08609              -0.02980884       -10.97317         -70.1731          90.457             -200               0             -200               0
1.09272              -0.03068284       -11.06998        -70.55095        87.70763             -200               0             -200               0
1.09934               -0.0315853        -11.1676        -70.94758        85.52217             -200               0             -200               0
1.10596              -0.03251847       -11.26604        -71.35054        83.98768             -200               0             -200               0
1.11258              -0.03348581       -11.36531        -71.74108        83.18672             -200               0             -200               0
1.11921              -0.03448859       -11.46541        -72.09289        83.17825             -200               0             -200               0
1.12583              -0.03553038       -11.56636        -72.37218        83.96832             -200               0             -200               0
1.13245              -0.03661306       -11.66814        -72.54073        85.47537             -200               0             -200               0
1.13907              -0.03773866       -11.77078        -72.56303        87.50585             -200               0             -200               0
1.1457               -0.03890865       -11.87426        -72.41614        89.76369             -200               0             -200               0
1.15232              -0.04012399       -11.97859        -72.09755        91.90493             -200               0             -200               0
1.15894              -0.04138672       -12.08377        -71.62613         93.6174             -200               0             -200               0
1.16556              -0.04269772        -12.1898        -71.03535        94.68358             -200               0             -200               0
1.17219              -0.04405643       -12.29669        -70.36336        94.99956             -200               0             -200               0
1.17881              -0.04546421       -12.40443        -69.64505        94.55603             -200               0             -200               0
1.18543              -0.04691983       -12.51303        -68.90819        93.40395             -200               0             -200               0
1.19205              -0.04842394        -12.6225         -68.1728         91.6234             -200               0             -200               0
1.19868              -0.04997578       -12.73285        -67.45232        89.30235             -200               0             -200               0
1.2053               -0.05157468       -12.84408        -66.75515        86.52489             -200               0             -200               0
1.21192              -0.05321923       -12.95622        -66.08616        83.36605             -200               0             -200               0
1.21854              -0.05490957       -13.06927        -65.44789        79.89028             -200               0             -200               0
1.22517              -0.05664496       -13.18326         -64.8413        76.15185             -200               0             -200               0
1.23179               -0.0584239        -13.2982        -64.26641        72.19606             -200               0             -200               0
1.23841              -0.06024687       -13.41413        -63.72266        68.06054             -200               0             -200               0
1.24503              -0.06211374       -13.53108        -63.20915        63.77665             -200               0             -200               0
1.25166              -0.06402311       -13.64906        -62.72482        59.37058             -200               0             -200               0
1.25828              -0.06597721       -13.76812        -62.26851        54.86432             -200               0             -200               0
1.2649               -0.06797661       -13.88829        -61.83909        50.27652             -200               0             -200               0
1.27152               -0.0700222       -14.00961        -61.43543        45.62309             -200               0             -200               0
1.27815              -0.07211658       -14.13212        -61.05646        40.91773             -200               0             -200               0
1.28477              -0.07426159       -14.25584        -60.70116        36.17239             -200               0             -200               0
1.29139              -0.07646062       -14.38083         -60.3686        31.39759             -200               0             -200               0
1.29801              -0.07871664       -14.50712        -60.05788        26.60269             -200               0             -200               0
1.30464              -0.08103462       -14.63474        -59.76817        21.79614             -200               0             -200               0
1.31126              -0.08341913       -14.76373         -59.4987        16.98565             -200               0             -200               0
1.31788              -0.08587464       -14.89413        -59.24875        12.17837             -200               0             -200               0
1.3245               -0.08840697       -15.02596        -59.01763        7.380962             -200               0             -200               0
1.33113              -0.09102276       -15.15926         -58.8047        2.599787             -200               0             -200               0
1.33775              -0.09372655       -15.29405        -58.60933       -2.159063             -200               0             -200               0
1.34437              -0.09652683       -15.43035        -58.43092       -6.889669             -200               0             -200               0
1.35099              -0.09942829       -15.56818        -58.26888       -11.58622             -200               0             -200               0
1.35762               -0.1024383       -15.70755        -58.12263       -16.24297             -200               0             -200               0
1.36424               -0.1055629       -15.84849        -57.99155       -20.85417             -200               0             -200               0
1.37086               -0.1088092         -15.991        -57.87504       -25.41406             -200               0             -200               0
1.37748               -0.1121836       -16.13508        -57.77245       -29.91684             -200               0             -200               0
1.38411               -0.1156908       -16.28073         -57.6831       -34.35665             -200               0             -200               0
1.39073               -0.1193367       -16.42797        -57.60624       -38.72758             -200               0             -200               0
1.39735               -0.1231263       -16.57678        -57.54108       -43.02366             -200               0             -200               0
1.40397               -0.1270656       -16.72717        -57.48672       -47.23895             -200               0             -200               0
1.4106                -0.1311568       -16.87913         -57.4422       -51.36753             -200               0             -200               0
1.41722               -0.1354046       -17.03266         -57.4064        -55.4036             -200               0             -200               0
1.42384               -0.1398117       -17.18776        -57.37814        -59.3416             -200               0             -200               0
1.43046               -0.1443814       -17.34444        -57.35604       -63.17634             -200               0             -200               0
1.43709               -0.1491152       -17.50268        -57.33862       -66.90313             -200               0             -200               0
1.44371               -0.1540157       -17.66251        -57.32423       -70.51805             -200               0             -200               0
1.45033               -0.1590835       -17.82392        -57.31106       -74.01815             -200               0             -200               0
1.45695               -0.1643211       -17.98692        -57.29717        -77.4017             -200               0             -200               0
1.46358               -0.1697282       -18.15154        -57.28047       -80.66852             -200               0             -200               0
1.4702                -0.1753051       -18.31779         -57.2588       -83.82022             -200               0             -200               0
1.47682                -0.181055        -18.4857        -57.22993       -86.86049             -200               0             -200               0
1.48344               -0.1869779       -18.65529        -57.19164       -89.79532             -200               0             -200               0
1.49007               -0.1930747        -18.8266        -57.14177       -92.63313             -200               0             -200               0
1.49669               -0.1993482       -18.99968        -57.07832       -95.38478             -200               0             -200               0
1.50331               -0.2057994       -19.17455        -56.99953       -98.06347             -200               0             -200               0
1.50993               -0.2124322       -19.35127        -56.90396       -100.6845             -200               0             -200               0
1.51656               -0.2192494       -19.52989        -56.79055       -103.2646             -200               0             -200               0
1.52318               -0.2262556       -19.71046        -56.65871       -105.8219             -200               0             -200               0
1.5298                -0.2334561       -19.89304         -56.5083       -108.3747             -200               0             -200               0
1.53642               -0.2408549       -20.07767        -56.33968       -110.9411             -200               0             -200               0
1.54305               -0.2484613       -20.26443        -56.15366       -113.5383             -200               0             -200               0
1.54967               -0.2562819       -20.45336        -55.95146       -116.1817             -200               0             -200               0
1.55629               -0.2643249       -20.64452        -55.73463       -118.8851             -200               0             -200               0
1.56291               -0.2725997       -20.83796        -55.50498       -121.6597             -200               0             -200               0
1.56954               -0.2811163       -21.03374        -55.26448       -124.5142             -200               0             -200               0
1.57616               -0.2898867        -21.2319        -55.01521       -127.4551             -200               0             -200               0
1.58278               -0.2989205        -21.4325        -54.75923       -130.4861             -200               0             -200               0
1.5894                -0.3082318       -21.63556        -54.49858        -133.609             -200               0             -200               0
1.59603                -0.317831       -21.84113        -54.23518       -136.8236             -200               0             -200               0
1.60265               -0.3277318       -22.04924        -53.97084       -140.1282             -200               0             -200               0
1.60927               -0.3379469       -22.25991        -53.70719       -143.5194             -200               0             -200               0
1.61589               -0.3484894       -22.47318        -53.44571       -146.9929             -200               0             -200               0
1.62252               -0.3593721       -22.68905        -53.18771       -150.5438             -200               0             -200               0
1.62914               -0.3706076       -22.90753        -52.93434       -154.1661             -200               0             -200               0
1.63576               -0.3822075       -23.12865        -52.68656       -157.8538             -200               0             -200               0
1.64238               -0.3941848       -23.35241        -52.44522       -161.6003             -200               0             -200               0
1.64901                -0.406551        -23.5788        -52.21099       -165.3989             -200               0             -200               0
1.65563               -0.4193152       -23.80785        -51.98443       -169.2428             -200               0             -200               0
1.66225               -0.4324894       -24.03954          -51.766       -173.1253             -200               0             -200               0
1.66887               -0.4460821        -24.2739        -51.55601       -177.0396             -200               0             -200               0
1.6755                -0.4601016       -24.51091        -51.35471         179.021             -200               0             -200               0
1.68212               -0.4745575        -24.7506        -51.16223        175.0631             -200               0             -200               0
1.68874               -0.4894569       -24.99298        -50.97862        171.0934             -200               0             -200               0
1.69536               -0.5048076       -25.23807        -50.80387        167.1182             -200               0             -200               0
1.70199               -0.5206151       -25.48588        -50.63787        163.1439             -200               0             -200               0
1.70861               -0.5368875       -25.73646        -50.48042        159.1766             -200               0             -200               0
1.71523               -0.5536307       -25.98985        -50.33127        155.2226             -200               0             -200               0
1.72185               -0.5708516       -26.24609        -50.19009        151.2878             -200               0             -200               0
1.72848               -0.5885568       -26.50525        -50.05645        147.3779             -200               0             -200               0
1.7351                -0.6067553       -26.76739        -49.92986        143.4987             -200               0             -200               0
1.74172               -0.6254533       -27.03258        -49.80973        139.6557             -200               0             -200               0
1.74834               -0.6446628       -27.30092        -49.69539        135.8539             -200               0             -200               0
1.75497               -0.6643906       -27.57248        -49.58607        132.0984             -200               0             -200               0
1.76159               -0.6846523        -27.8474         -49.4809        128.3937             -200               0             -200               0
1.76821               -0.7054593       -28.12576        -49.37893        124.7438             -200               0             -200               0
1.77483               -0.7268268        -28.4077        -49.27911        121.1522             -200               0             -200               0
1.78146               -0.7487722       -28.69332        -49.18026        117.6219             -200               0             -200               0
1.78808               -0.7713154       -28.98277        -49.08117        114.1549             -200               0             -200               0
1.7947                -0.7944759       -29.27618        -48.98049        110.7522             -200               0             -200               0
1.80132               -0.8182796       -29.57368        -48.87685         107.414             -200               0             -200               0
1.80795               -0.8427517        -29.8754         -48.7688        104.1391             -200               0             -200               0
1.81457               -0.8679203       -30.18148        -48.65491         100.925             -200               0             -200               0
1.82119               -0.8938159       -30.49206        -48.53372          97.768             -200               0             -200               0
1.82781               -0.9204722       -30.80727        -48.40385        94.66275             -200               0             -200               0
1.83444               -0.9479245       -31.12722        -48.26399        91.60254             -200               0             -200               0
1.84106               -0.9762103       -31.45204        -48.11296         88.5793             -200               0             -200               0
1.84768                -1.005371       -31.78186        -47.94978        85.58372             -200               0             -200               0
1.8543                 -1.035445       -32.11676        -47.77364        82.60542             -200               0             -200               0
1.86093                -1.066478       -32.45685        -47.58398        79.63326             -200               0             -200               0
1.86755                -1.098516       -32.80223        -47.38051        76.65558             -200               0             -200               0
1.87417                -1.131605       -33.15297        -47.16321        73.66059             -200               0             -200               0
1.88079                -1.165793       -33.50916        -46.93231        70.63666             -200               0             -200               0
1.88742                 -1.20113       -33.87085        -46.68831        67.57266             -200               0             -200               0
1.89404                -1.237667       -34.23812        -46.43195         64.4583             -200               0             -200               0
1.90066                -1.275456         -34.611        -46.16414        61.28428             -200               0             -200               0
1.90728                 -1.31455       -34.98955        -45.88597        58.04252             -200               0             -200               0
1.91391                -1.355004       -35.37382        -45.59865        54.72625             -200               0             -200               0
1.92053                -1.396872       -35.76385        -45.30346        51.33007             -200               0             -200               0
1.92715                 -1.44021       -36.15968        -45.00172        47.84991             -200               0             -200               0
1.93377                -1.485076       -36.56134        -44.69476          44.283             -200               0             -200               0
1.9404                 -1.531531       -36.96888        -44.38386        40.62771             -200               0             -200               0
1.94702                -1.579634       -37.38234        -44.07029        36.88351             -200               0             -200               0
1.95364                -1.629447       -37.80177        -43.75522        33.05077             -200               0             -200               0
1.96026                -1.681037       -38.22722        -43.43975        29.13064             -200               0             -200               0
1.96689                -1.734469       -38.65875        -43.12491         25.1249             -200               0             -200               0
1.97351                -1.789817       -39.09643         -42.8116        21.03585             -200               0             -200               0
1.98013                -1.847152       -39.54032        -42.50068        16.86619             -200               0             -200               0
1.98675                -1.906555       -39.99051        -42.19287        12.61889             -200               0             -200               0
1.99338                -1.968108       -40.44709        -41.88883        8.297123             -200               0             -200               0
2                        -2.0319       -40.91013        -41.58915        3.904184             -200               0             -200               0
2.00662                -2.098026       -41.37976        -41.29433       -0.556569             -200               0             -200               0
2.01325                -2.166584       -41.85607        -41.00479       -5.081778             -200               0             -200               0
2.01987                -2.237687       -42.33916        -40.72092       -9.668111             -200               0             -200               0
2.02649                -2.311448       -42.82913        -40.44303        -14.3123             -200               0             -200               0
2.03311                -2.387995       -43.32608        -40.17139       -19.01118             -200               0             -200               0
2.03974                -2.467459       -43.83011        -39.90622       -23.76167             -200               0             -200               0
2.04636                -2.549988        -44.3413        -39.64771       -28.56081             -200               0             -200               0
2.05298                -2.635737       -44.85971        -39.39601       -33.40577             -200               0             -200               0
2.0596                 -2.724871       -45.38538        -39.15125       -38.29384             -200               0             -200               0
2.06623                -2.817571       -45.91833        -38.91352       -43.22244             -200               0             -200               0
2.07285                -2.914029       -46.45855         -38.6829       -48.18912             -200               0             -200               0
2.07947                -3.014452       -47.00597        -38.45944       -53.19155             -200               0             -200               0
2.08609                -3.119056        -47.5605        -38.24319       -58.22753             -200               0             -200               0
2.09272                 -3.22808       -48.12198        -38.03417       -63.29497             -200               0             -200               0
2.09934                -3.341773       -48.69021         -37.8324       -68.39188             -200               0             -200               0
2.10596                  -3.4604       -49.26489        -37.63788       -73.51641             -200               0             -200               0
2.11258                -3.584245       -49.84568        -37.45061       -78.66676             -200               0             -200               0
2.11921                -3.713609       -50.43211        -37.27059       -83.84127             -200               0             -200               0
2.12583                -3.848813       -51.02365        -37.09779       -89.03835             -200               0             -200               0
2.13245                -3.990193       -51.61966         -36.9322       -94.25649             -200               0             -200               0
2.13907                 -4.13811       -52.21935        -36.77379       -99.49426             -200               0             -200               0
2.1457                 -4.292944       -52.82183        -36.62255       -104.7503             -200               0             -200               0
2.15232                -4.455098       -53.42608        -36.47844       -110.0234             -200               0             -200               0
2.15894                -4.625001       -54.03086        -36.34144       -115.3122             -200               0             -200               0
2.16556                -4.803106       -54.63481        -36.21152       -120.6156             -200               0             -200               0
2.17219                -4.989896       -55.23634        -36.08864       -125.9325             -200               0             -200               0
2.17881                -5.185882       -55.83366        -35.97279       -131.2619             -200               0             -200               0
2.18543                -5.391608       -56.42471        -35.86393       -136.6026             -200               0             -200               0
2.19205                -5.607656       -57.00716        -35.76204       -141.9539             -200               0             -200               0
2.19868                -5.834644       -57.57837        -35.66708       -147.3146             -200               0             -200               0
2.2053                 -6.073234       -58.13532        -35.57904       -152.6839             -200               0             -200               0
2.21192                -6.324137        -58.6746        -35.49788        -158.061             -200               0             -200               0
2.21854                -6.588114       -59.19227        -35.42359       -163.4449             -200               0             -200               0
2.22517                -6.865984       -59.68389        -35.35615        -168.835             -200               0             -200               0
2.23179                -7.158631       -60.14431        -35.29554       -174.2304             -200               0             -200               0
2.23841                -7.467006       -60.56763        -35.24173       -179.6303             -200               0             -200               0
2.24503                -7.792138       -60.94702        -35.19473        174.9661             -200               0             -200               0
2.25166                -8.135144       -61.27452         -35.1545        169.5593             -200               0             -200               0
2.25828                -8.497226       -61.54084        -35.12105        164.1502             -200               0             -200               0
2.2649                 -8.879687       -61.73505        -35.09436        158.7395             -200               0             -200               0
2.27152                -9.283925       -61.84423        -35.07443        153.3279             -200               0             -200               0
2.27815                -9.711441       -61.85296        -35.06126         147.916             -200               0             -200               0
2.28477                -10.16382       -61.74277        -35.05483        142.5046             -200               0             -200               0
2.29139                -10.64272       -61.49131        -35.05516        137.0942             -200               0             -200               0
2.29801                -11.14982       -61.07147        -35.06225        131.6857             -200               0             -200               0