! TOUCHSTONE file generated by CST MICROWAVE STUDIO
! Date and time: Tue Mar 18 00:01:06 2025
! Project name: oblique.cst
! Parameters = {Tilt=30; Fracture=1; B=10; D=160; F=25; Feed=2.85625; L=100; M=10; R=0.384908; S=2; Theta=90; length=57.125; wave=114.25}
! Header version: 2024
! Port assignment regex: !\s*Touchstone port\s*([0-9]+)\s*=\s*(CST MWS port|CST DES external port|CST DES block port)\s*(.+)\s* \(\"(.*)\"\)(\s*mode\s*([0-9]+))?.*
! Touchstone port assignment:
! Touchstone port 1 = CST MWS port 1 ("")
! Touchstone port 2 = CST MWS port 2 ("")
# GHz S DB R 50
1                    -0.01929263       -9.777252        -68.72784       -163.1331             -200               0             -200               0
1.00658              -0.02004549        -9.86531        -68.61728       -166.6987             -200               0             -200               0
1.01316              -0.02083092       -9.953847        -68.52033       -170.1344             -200               0             -200               0
1.01974              -0.02164606       -10.04286        -68.43496       -173.4305             -200               0             -200               0
1.02632              -0.02248859       -10.13234        -68.35886       -176.5777             -200               0             -200               0
1.03289              -0.02335594       -10.22231        -68.28946       -179.5676             -200               0             -200               0
1.03947              -0.02424444       -10.31276        -68.22385        177.6069             -200               0             -200               0
1.04605              -0.02515287        -10.4037         -68.1588        174.9508             -200               0             -200               0
1.05263              -0.02607786       -10.49517        -68.09077        172.4667             -200               0             -200               0
1.05921              -0.02701696       -10.58717        -68.01596        170.1537             -200               0             -200               0
1.06579               -0.0279686       -10.67972        -67.93038        168.0069             -200               0             -200               0
1.07237              -0.02893115       -10.77286        -67.82999        166.0164             -200               0             -200               0
1.07895              -0.02990338       -10.86661        -67.71089        164.1674             -200               0             -200               0
1.08553              -0.03088453         -10.961        -67.56949        162.4396             -200               0             -200               0
1.09211              -0.03187532       -11.05606        -67.40273         160.808             -200               0             -200               0
1.09868              -0.03287587       -11.15183        -67.20834        159.2432             -200               0             -200               0
1.10526               -0.0338879       -11.24833        -66.98493        157.7131             -200               0             -200               0
1.11184              -0.03491154       -11.34561        -66.73215        156.1845             -200               0             -200               0
1.11842              -0.03595063       -11.44368        -66.45069        154.6245             -200               0             -200               0
1.125                 -0.0370079       -11.54258         -66.1422        153.0028             -200               0             -200               0
1.13158              -0.03808673       -11.64234        -65.80911        151.2927             -200               0             -200               0
1.13816              -0.03919112       -11.74297         -65.4545        149.4723             -200               0             -200               0
1.14474              -0.04032452       -11.84451        -65.08182        147.5249             -200               0             -200               0
1.15132              -0.04149171       -11.94695         -64.6947         145.439             -200               0             -200               0
1.15789              -0.04269692       -12.05032        -64.29675        143.2082             -200               0             -200               0
1.16447               -0.0439451       -12.15462        -63.89145        140.8302             -200               0             -200               0
1.17105              -0.04524015       -12.25986        -63.48199        138.3066             -200               0             -200               0
1.17763              -0.04658678       -12.36603        -63.07125        135.6417             -200               0             -200               0
1.18421              -0.04798819       -12.47314        -62.66176        132.8418             -200               0             -200               0
1.19079              -0.04944814       -12.58119         -62.2557        129.9149             -200               0             -200               0
1.19737              -0.05096947       -12.69015        -61.85488        126.8699             -200               0             -200               0
1.20395               -0.0525557       -12.80002        -61.46085        123.7164             -200               0             -200               0
1.21053              -0.05420763       -12.91078        -61.07482        120.4639             -200               0             -200               0
1.21711              -0.05592628       -13.02243        -60.69779        117.1221             -200               0             -200               0
1.22368              -0.05771251       -13.13496        -60.33053        113.7005             -200               0             -200               0
1.23026              -0.05956666       -13.24834        -59.97362        110.2082             -200               0             -200               0
1.23684              -0.06148752       -13.36257         -59.6275        106.6541             -200               0             -200               0
1.24342              -0.06347369       -13.47764        -59.29244        103.0465             -200               0             -200               0
1.25                 -0.06552381       -13.59354        -58.96863        99.39332             -200               0             -200               0
1.25658              -0.06763512       -13.71028        -58.65615        95.70215             -200               0             -200               0
1.26316              -0.06980427       -13.82786          -58.355         91.9801             -200               0             -200               0
1.26974              -0.07202889       -13.94627         -58.0651        88.23391             -200               0             -200               0
1.27632               -0.0743057       -14.06555        -57.78634        84.46997             -200               0             -200               0
1.28289              -0.07663028       -14.18569        -57.51853        80.69432             -200               0             -200               0
1.28947              -0.07900048       -14.30673        -57.26143        76.91268             -200               0             -200               0
1.29605              -0.08141302       -14.42869        -57.01478        73.13052             -200               0             -200               0
1.30263              -0.08386526       -14.55161        -56.77825        69.35298             -200               0             -200               0
1.30921              -0.08635344       -14.67551         -56.5515          65.585             -200               0             -200               0
1.31579              -0.08887621       -14.80046        -56.33413        61.83126             -200               0             -200               0
1.32237               -0.0914329       -14.92648        -56.12572        58.09619             -200               0             -200               0
1.32895              -0.09402144       -15.05363        -55.92581        54.38401             -200               0             -200               0
1.33553              -0.09664301       -15.18195        -55.73389         50.6987             -200               0             -200               0
1.34211              -0.09929752       -15.31151        -55.54943        47.04399             -200               0             -200               0
1.34868               -0.1019863       -15.44235        -55.37184        43.42337             -200               0             -200               0
1.35526               -0.1047122       -15.57453        -55.20052        39.84004             -200               0             -200               0
1.36184                -0.107478        -15.7081         -55.0348        36.29692             -200               0             -200               0
1.36842               -0.1102873       -15.84311          -54.874        32.79658             -200               0             -200               0
1.375                 -0.1131452       -15.97962        -54.71737        29.34124             -200               0             -200               0
1.38158                -0.116055       -16.11766        -54.56416        25.93272             -200               0             -200               0
1.38816               -0.1190233       -16.25729        -54.41355        22.57237             -200               0             -200               0
1.39474               -0.1220566       -16.39854        -54.26474         19.2611             -200               0             -200               0
1.40132               -0.1251591       -16.54145        -54.11686        15.99926             -200               0             -200               0
1.40789               -0.1283386       -16.68606        -53.96907        12.78662             -200               0             -200               0
1.41447               -0.1316001       -16.83239        -53.82049        9.622373             -200               0             -200               0
1.42105               -0.1349506       -16.98046        -53.67027        6.505074             -200               0             -200               0
1.42763                -0.138395       -17.13031        -53.51758        3.432634             -200               0             -200               0
1.43421               -0.1419393       -17.28194        -53.36161       0.4023129             -200               0             -200               0
1.44079               -0.1455896       -17.43538        -53.20163       -2.589253             -200               0             -200               0
1.44737               -0.1493485       -17.59064        -53.03693       -5.546025             -200               0             -200               0
1.45395                -0.153221       -17.74774        -52.86691       -8.472505             -200               0             -200               0
1.46053               -0.1572107       -17.90668        -52.69106       -11.37367             -200               0             -200               0
1.46711               -0.1613199        -18.0675        -52.50895       -14.25488             -200               0             -200               0
1.47368               -0.1655507        -18.2302        -52.32029       -17.12176             -200               0             -200               0
1.48026               -0.1699047       -18.39481        -52.12488       -19.98011             -200               0             -200               0
1.48684               -0.1743831       -18.56135        -51.92266       -22.83575             -200               0             -200               0
1.49342               -0.1789865       -18.72986        -51.71367       -25.69444             -200               0             -200               0
1.5                   -0.1837139       -18.90036        -51.49808       -28.56172             -200               0             -200               0
1.50658               -0.1885673        -19.0729        -51.27615       -31.44282             -200               0             -200               0
1.51316               -0.1935454       -19.24754        -51.04825       -34.34255             -200               0             -200               0
1.51974               -0.1986484       -19.42434        -50.81481       -37.26527             -200               0             -200               0
1.52632               -0.2038761       -19.60334        -50.57636       -40.21473             -200               0             -200               0
1.53289               -0.2092299       -19.78463        -50.33344       -43.19416             -200               0             -200               0
1.53947                -0.214711        -19.9683        -50.08665       -46.20613             -200               0             -200               0
1.54605               -0.2203209       -20.15442        -49.83661       -49.25264             -200               0             -200               0
1.55263               -0.2260649       -20.34309        -49.58396       -52.33506             -200               0             -200               0
1.55921               -0.2319444       -20.53442         -49.3293       -55.45421             -200               0             -200               0
1.56579               -0.2379661       -20.72852        -49.07325       -58.61037             -200               0             -200               0
1.57237               -0.2441375       -20.92549        -48.81638       -61.80335             -200               0             -200               0
1.57895               -0.2504668       -21.12545        -48.55924        -65.0325             -200               0             -200               0
1.58553               -0.2569651       -21.32852        -48.30233        -68.2968             -200               0             -200               0
1.59211               -0.2636426       -21.53483        -48.04612       -71.59489             -200               0             -200               0
1.59868               -0.2705142       -21.74448        -47.79102       -74.92515             -200               0             -200               0
1.60526               -0.2775952        -21.9576         -47.5374       -78.28571             -200               0             -200               0
1.61184               -0.2849026       -22.17431        -47.28558       -81.67453             -200               0             -200               0
1.61842               -0.2924539       -22.39471        -47.03581       -85.08945             -200               0             -200               0
1.625                 -0.3002713       -22.61891        -46.78833        -88.5282             -200               0             -200               0
1.63158               -0.3083753       -22.84702        -46.54329       -91.98845             -200               0             -200               0
1.63816                -0.316789       -23.07911        -46.30082       -95.46786             -200               0             -200               0
1.64474               -0.3255364       -23.31529          -46.061       -98.96409             -200               0             -200               0
1.65132               -0.3346429       -23.55562        -45.82386       -102.4748             -200               0             -200               0
1.65789               -0.3441328       -23.80018         -45.5894       -105.9979             -200               0             -200               0
1.66447               -0.3540333       -24.04901        -45.35756       -109.5311             -200               0             -200               0
1.67105               -0.3643704       -24.30218        -45.12827       -113.0724             -200               0             -200               0
1.67763               -0.3751707       -24.55972        -44.90142       -116.6198             -200               0             -200               0
1.68421               -0.3864608       -24.82166        -44.67685       -120.1717             -200               0             -200               0
1.69079               -0.3982672       -25.08804        -44.45439       -123.7263             -200               0             -200               0
1.69737               -0.4106158       -25.35886        -44.23384       -127.2823             -200               0             -200               0
1.70395               -0.4235317       -25.63415        -44.01498       -130.8384             -200               0             -200               0
1.71053               -0.4370391       -25.91391        -43.79757       -134.3935             -200               0             -200               0
1.71711               -0.4511631       -26.19815        -43.58135       -137.9468             -200               0             -200               0
1.72368                -0.465926       -26.48689        -43.36605       -141.4977             -200               0             -200               0
1.73026               -0.4813514       -26.78012        -43.15139       -145.0458             -200               0             -200               0
1.73684               -0.4974608       -27.07785        -42.93709        -148.591             -200               0             -200               0
1.74342               -0.5142763        -27.3801        -42.72287       -152.1333             -200               0             -200               0
1.75                  -0.5318174       -27.68689        -42.50843        -155.673             -200               0             -200               0
1.75658               -0.5501055       -27.99824        -42.29351       -159.2106             -200               0             -200               0
1.76316               -0.5691605       -28.31419        -42.07784       -162.7471             -200               0             -200               0
1.76974               -0.5890021       -28.63478        -41.86117       -166.2832             -200               0             -200               0
1.77632               -0.6096532       -28.96005        -41.64326       -169.8202             -200               0             -200               0
1.78289               -0.6311345       -29.29009        -41.42391       -173.3596             -200               0             -200               0
1.78947               -0.6534695       -29.62495        -41.20292       -176.9028             -200               0             -200               0
1.79605               -0.6766808       -29.96474        -40.98015        179.5485             -200               0             -200               0
1.80263               -0.7007943       -30.30954        -40.75547        175.9924             -200               0             -200               0
1.80921               -0.7258384       -30.65948        -40.52878        172.4271             -200               0             -200               0
1.81579               -0.7518425       -31.01467        -40.30002        168.8505             -200               0             -200               0
1.82237               -0.7788401       -31.37524        -40.06918        165.2606             -200               0             -200               0
1.82895               -0.8068671       -31.74135        -39.83624        161.6554             -200               0             -200               0
1.83553               -0.8359624       -32.11313        -39.60127        158.0329             -200               0             -200               0
1.84211                 -0.86617       -32.49073        -39.36433         154.391             -200               0             -200               0
1.84868                -0.897537       -32.87433        -39.12554        150.7278             -200               0             -200               0
1.85526               -0.9301142       -33.26408        -38.88503        147.0417             -200               0             -200               0
1.86184               -0.9639586       -33.66014        -38.64297        143.3307             -200               0             -200               0
1.86842               -0.9991323       -34.06266        -38.39954        139.5933             -200               0             -200               0
1.875                  -1.035698       -34.47179        -38.15497        135.8282             -200               0             -200               0
1.88158                -1.073729       -34.88768        -37.90947         132.034             -200               0             -200               0
1.88816                -1.113299       -35.31045        -37.66329        128.2095             -200               0             -200               0
1.89474                -1.154491       -35.74022        -37.41669        124.3539             -200               0             -200               0
1.90132                 -1.19739       -36.17709        -37.16992        120.4664             -200               0             -200               0
1.90789                -1.242087       -36.62112        -36.92327        116.5462             -200               0             -200               0
1.91447                -1.288678       -37.07239        -36.67699         112.593             -200               0             -200               0
1.92105                -1.337263       -37.53091        -36.43137        108.6064             -200               0             -200               0
1.92763                 -1.38795       -37.99669        -36.18667        104.5864             -200               0             -200               0
1.93421                -1.440848       -38.46971        -35.94316        100.5328             -200               0             -200               0
1.94079                -1.496071       -38.94989        -35.70109        96.44578             -200               0             -200               0
1.94737                -1.553739       -39.43714        -35.46072        92.32564             -200               0             -200               0
1.95395                -1.613974       -39.93134        -35.22229        88.17268             -200               0             -200               0
1.96053                -1.676906       -40.43232        -34.98604        83.98737             -200               0             -200               0
1.96711                -1.742663       -40.93985        -34.75217        79.77025             -200               0             -200               0
1.97368                -1.811382        -41.4537        -34.52091        75.52195             -200               0             -200               0
1.98026                  -1.8832       -41.97358        -34.29246        71.24315             -200               0             -200               0
1.98684                -1.958259       -42.49913        -34.06699        66.93461             -200               0             -200               0
1.99342                -2.036703       -43.02999        -33.84469        62.59713             -200               0             -200               0
2                      -2.118681       -43.56571        -33.62573        58.23155             -200               0             -200               0
2.00658                -2.204344       -44.10584        -33.41024        53.83877             -200               0             -200               0
2.01316                -2.293848       -44.64982        -33.19838        49.41968             -200               0             -200               0
2.01974                -2.387348       -45.19709        -32.99027        44.97522             -200               0             -200               0
2.02632                -2.485008       -45.74701        -32.78604        40.50633             -200               0             -200               0
2.03289                 -2.58699       -46.29889        -32.58579        36.01397             -200               0             -200               0
2.03947                -2.693463       -46.85198        -32.38963        31.49912             -200               0             -200               0
2.04605                -2.804599       -47.40548        -32.19764        26.96273             -200               0             -200               0
2.05263                -2.920572        -47.9585        -32.00991        22.40578             -200               0             -200               0
2.05921                -3.041563       -48.51012        -31.82651        17.82922             -200               0             -200               0
2.06579                -3.167754       -49.05931        -31.64752        13.23402             -200               0             -200               0
2.07237                -3.299334       -49.60498        -31.47298        8.621117             -200               0             -200               0
2.07895                -3.436497       -50.14596        -31.30295        3.991464             -200               0             -200               0
2.08553                 -3.57944       -50.68099        -31.13749      -0.6540142             -200               0             -200               0
2.09211                -3.728367       -51.20868        -30.97662       -5.314399             -200               0             -200               0
2.09868                -3.883488       -51.72759        -30.82039       -9.988787             -200               0             -200               0
2.10526                -4.045017        -52.2361        -30.66883       -14.67628             -200               0             -200               0
2.11184                -4.213178       -52.73251        -30.52195       -19.37601             -200               0             -200               0
2.11842                -4.388198       -53.21496        -30.37979       -24.08711             -200               0             -200               0
2.125                  -4.570311       -53.68144        -30.24237       -28.80872             -200               0             -200               0
2.13158                -4.759763       -54.12974        -30.10968       -33.54001             -200               0             -200               0
2.13816                -4.956797       -54.55748        -29.98175       -38.28015             -200               0             -200               0
2.14474                -5.161672       -54.96206        -29.85858       -43.02835             -200               0             -200               0
2.15132                -5.374648       -55.34063        -29.74017       -47.78379             -200               0             -200               0
2.15789                -5.595992       -55.69007        -29.62652        -52.5457             -200               0             -200               0
2.16447                -5.825974       -56.00695        -29.51764        -57.3133             -200               0             -200               0
2.17105                -6.064868       -56.28751        -29.41351       -62.08583             -200               0             -200               0
2.17763                -6.312948       -56.52759        -29.31413       -66.86255             -200               0             -200               0
2.18421                -6.570487       -56.72259        -29.21949       -71.64271             -200               0             -200               0
2.19079                -6.837747       -56.86744        -29.12958       -76.42559             -200               0             -200               0
2.19737                -7.114981       -56.95649        -29.04438       -81.21046             -200               0             -200               0
2.20395                -7.402424       -56.98349        -28.96387       -85.99662             -200               0             -200               0
2.21053                -7.700278       -56.94145        -28.88805       -90.78337             -200               0             -200               0
2.21711                -8.008707       -56.82264        -28.81688       -95.57001             -200               0             -200               0
2.22368                -8.327818        -56.6184        -28.75035       -100.3559             -200               0             -200               0
2.23026                -8.657636       -56.31913        -28.68842       -105.1402             -200               0             -200               0
2.23684                -8.998084       -55.91409        -28.63109       -109.9224             -200               0             -200               0
2.24342                -9.348946       -55.39141        -28.57831       -114.7019             -200               0             -200               0
2.25                    -9.70982       -54.73791        -28.53006       -119.4778             -200               0             -200               0
2.25658                -10.08007       -53.93911         -28.4863       -124.2496             -200               0             -200               0
2.26316                -10.45876        -52.9792          -28.447       -129.0166             -200               0             -200               0
2.26974                -10.84456       -51.84107        -28.41213       -133.7782             -200               0             -200               0
2.27632                -11.23567       -50.50659        -28.38164       -138.5338             -200               0             -200               0
2.28289                -11.62967       -48.95695        -28.35549       -143.2826             -200               0             -200               0
2.28947                -12.02345       -47.17325        -28.33365       -148.0241             -200               0             -200               0