! TOUCHSTONE file generated by CST MICROWAVE STUDIO
! Date and time: Tue Mar 18 00:02:31 2025
! Project name: oblique.cst
! Parameters = {Tilt=40; Fracture=1; B=12.5; D=160; F=5; Feed=2.85625; L=100; M=10; R=0.384908; S=1; Theta=270; length=57.125; wave=114.25}
! Header version: 2024
! Port assignment regex: !\s*Touchstone port\s*([0-9]+)\s*=\s*(CST MWS port|CST DES external port|CST DES block port)\s*(.+)\s* \(\"(.*)\"\)(\s*mode\s*([0-9]+))?.*
! Touchstone port assignment:
! Touchstone port 1 = CST MWS port 1 ("")
! Touchstone port 2 = CST MWS port 2 ("")
# GHz S DB R 50
1                    -0.01841667        -9.76767        -70.80613       -122.2139             -200               0             -200               0
1.00658              -0.01917692        -9.85668        -70.15041       -127.0536             -200               0             -200               0
1.01316              -0.02000329       -9.946078        -69.56052       -131.9733             -200               0             -200               0
1.01974              -0.02089001       -10.03582        -69.02995       -136.9472             -200               0             -200               0
1.02632              -0.02183057       -10.12586        -68.55346       -141.9549             -200               0             -200               0
1.03289              -0.02281771       -10.21618        -68.12683       -146.9802             -200               0             -200               0
1.03947              -0.02384139       -10.30674        -67.74663       -152.0093             -200               0             -200               0
1.04605               -0.0248943       -10.39755        -67.41009       -157.0301             -200               0             -200               0
1.05263              -0.02596576       -10.48861        -67.11497        -162.032             -200               0             -200               0
1.05921              -0.02704576       -10.57992        -66.85947       -167.0049             -200               0             -200               0
1.06579              -0.02812494       -10.67151        -66.64219       -171.9387             -200               0             -200               0
1.07237              -0.02919364       -10.76342        -66.46201       -176.8237             -200               0             -200               0
1.07895               -0.0302439        -10.8557        -66.31812        178.3506             -200               0             -200               0
1.08553              -0.03126794        -10.9484        -66.20994         173.595             -200               0             -200               0
1.09211              -0.03225872       -11.04159        -66.13709        168.9219             -200               0             -200               0
1.09868              -0.03321206       -11.13534        -66.09939        164.3445             -200               0             -200               0
1.10526              -0.03412512       -11.22973        -66.09678        159.8781             -200               0             -200               0
1.11184              -0.03499586       -11.32485        -66.12931        155.5405             -200               0             -200               0
1.11842              -0.03582484       -11.42078        -66.19709        151.3519             -200               0             -200               0
1.125                -0.03661446       -11.51761         -66.3002        147.3362             -200               0             -200               0
1.13158              -0.03736739       -11.61542        -66.43861        143.5218             -200               0             -200               0
1.13816              -0.03809183        -11.7143        -66.61201         139.942             -200               0             -200               0
1.14474               -0.0387936       -11.81432        -66.81962        136.6363             -200               0             -200               0
1.15132              -0.03948301       -11.91554        -67.05983        133.6515             -200               0             -200               0
1.15789              -0.04016885       -12.01803         -67.3298         131.042             -200               0             -200               0
1.16447              -0.04086449       -12.12183        -67.62477        128.8703             -200               0             -200               0
1.17105              -0.04158098       -12.22698        -67.93725        127.2055             -200               0             -200               0
1.17763              -0.04233033       -12.33351        -68.25593        126.1192             -200               0             -200               0
1.18421              -0.04312696       -12.44142        -68.56453        125.6778             -200               0             -200               0
1.19079              -0.04398312       -12.55072          -68.841         125.927             -200               0             -200               0
1.19737              -0.04491094        -12.6614        -69.05768        126.8716             -200               0             -200               0
1.20395              -0.04592141       -12.77343        -69.18352        128.4499             -200               0             -200               0
1.21053               -0.0470264       -12.88678        -69.18899        130.5162             -200               0             -200               0
1.21711              -0.04823437       -13.00141        -69.05299        132.8438             -200               0             -200               0
1.22368              -0.04955323       -13.11726        -68.76902        135.1582             -200               0             -200               0
1.23026              -0.05098947       -13.23429         -68.3473        137.1925             -200               0             -200               0
1.23684              -0.05254651       -13.35242        -67.81135        138.7385             -200               0             -200               0
1.24342              -0.05422711       -13.47159        -67.19129        139.6728             -200               0             -200               0
1.25                  -0.0560311       -13.59175        -66.51727         139.953             -200               0             -200               0
1.25658              -0.05795739       -13.71284        -65.81524        139.5969             -200               0             -200               0
1.26316              -0.06000275        -13.8348         -65.1053        138.6578             -200               0             -200               0
1.26974              -0.06216192       -13.95758        -64.40193        137.2048             -200               0             -200               0
1.27632              -0.06442844       -14.08114        -63.71488        135.3103             -200               0             -200               0
1.28289               -0.0667938       -14.20546        -63.05036        133.0427             -200               0             -200               0
1.28947              -0.06924877       -14.33051          -62.412        130.4632             -200               0             -200               0
1.29605              -0.07178468        -14.4563        -61.80171        127.6251             -200               0             -200               0
1.30263              -0.07439077       -14.58283        -61.22018        124.5742             -200               0             -200               0
1.30921              -0.07705636       -14.71012        -60.66737        121.3494             -200               0             -200               0
1.31579              -0.07977239       -14.83821        -60.14272        117.9836             -200               0             -200               0
1.32237              -0.08252823       -14.96715        -59.64538        114.5051             -200               0             -200               0
1.32895              -0.08531561       -15.09701        -59.17433        110.9377             -200               0             -200               0
1.33553              -0.08812856       -15.22786        -58.72843        107.3023             -200               0             -200               0
1.34211              -0.09095999       -15.35978        -58.30651        103.6166             -200               0             -200               0
1.34868              -0.09380599       -15.49288        -57.90735        99.89643             -200               0             -200               0
1.35526              -0.09666498       -15.62724        -57.52975        96.15558             -200               0             -200               0
1.36184               -0.0995377       -15.76299         -57.1725        92.40632             -200               0             -200               0
1.36842               -0.1024264       -15.90023        -56.83439        88.65967             -200               0             -200               0
1.375                 -0.1053341       -16.03906        -56.51424         84.9256             -200               0             -200               0
1.38158               -0.1082698       -16.17959        -56.21081         81.2131             -200               0             -200               0
1.38816               -0.1112411       -16.32193         -55.9229        77.53041             -200               0             -200               0
1.39474                 -0.11426       -16.46617        -55.64926        73.88501             -200               0             -200               0
1.40132               -0.1173387        -16.6124        -55.38862        70.28369             -200               0             -200               0
1.40789               -0.1204915        -16.7607        -55.13967        66.73257             -200               0             -200               0
1.41447               -0.1237347       -16.91112        -54.90107        63.23709             -200               0             -200               0
1.42105               -0.1270846       -17.06371        -54.67144        59.80199             -200               0             -200               0
1.42763                -0.130559       -17.21852        -54.44931        56.43122             -200               0             -200               0
1.43421               -0.1341743       -17.37557        -54.23322        53.12788             -200               0             -200               0
1.44079               -0.1379478       -17.53485        -54.02162        49.89418             -200               0             -200               0
1.44737               -0.1418968       -17.69637        -53.81295        46.73128             -200               0             -200               0
1.45395                -0.146037        -17.8601        -53.60563        43.63924             -200               0             -200               0
1.46053               -0.1503827       -18.02601        -53.39805        40.61691             -200               0             -200               0
1.46711               -0.1549473       -18.19405        -53.18865        37.66188             -200               0             -200               0
1.47368               -0.1597415       -18.36419         -52.9759        34.77043             -200               0             -200               0
1.48026                -0.164774       -18.53635        -52.75836        31.93752             -200               0             -200               0
1.48684                -0.170053       -18.71047        -52.53469        29.15682             -200               0             -200               0
1.49342               -0.1755827       -18.88651         -52.3037        26.42082             -200               0             -200               0
1.5                   -0.1813648       -19.06438        -52.06439        23.72097             -200               0             -200               0
1.50658               -0.1873994       -19.24404        -51.81595        21.04786             -200               0             -200               0
1.51316               -0.1936857       -19.42543        -51.55782        18.39152             -200               0             -200               0
1.51974                -0.200218       -19.60852        -51.28967         15.7416             -200               0             -200               0
1.52632               -0.2069916       -19.79327        -51.01141        13.08778             -200               0             -200               0
1.53289               -0.2139984       -19.97967        -50.72322        10.41995             -200               0             -200               0
1.53947               -0.2212307       -20.16773        -50.42548        7.728569             -200               0             -200               0
1.54605               -0.2286783       -20.35745        -50.11877        5.004858             -200               0             -200               0
1.55263               -0.2363333       -20.54888        -49.80386        2.241018             -200               0             -200               0
1.55921               -0.2441841       -20.74207        -49.48164      -0.5696516             -200               0             -200               0
1.56579               -0.2522232        -20.9371        -49.15312       -3.432654             -200               0             -200               0
1.57237               -0.2604429       -21.13406        -48.81935       -6.352277             -200               0             -200               0
1.57895               -0.2688363       -21.33305        -48.48142       -9.331608             -200               0             -200               0
1.58553               -0.2773999       -21.53421        -48.14042       -12.37259             -200               0             -200               0
1.59211               -0.2861305       -21.73768        -47.79743       -15.47611             -200               0             -200               0
1.59868               -0.2950284       -21.94361        -47.45346       -18.64212             -200               0             -200               0
1.60526               -0.3040989       -22.15216        -47.10946       -21.86974             -200               0             -200               0
1.61184               -0.3133472        -22.3635        -46.76632       -25.15739             -200               0             -200               0
1.61842               -0.3227836       -22.57782        -46.42485       -28.50288             -200               0             -200               0
1.625                 -0.3324219       -22.79528        -46.08576        -31.9036             -200               0             -200               0
1.63158               -0.3422785       -23.01606        -45.74968       -35.35653             -200               0             -200               0
1.63816               -0.3523735       -23.24033        -45.41715        -38.8584             -200               0             -200               0
1.64474               -0.3627312       -23.46824        -45.08864       -42.40575             -200               0             -200               0
1.65132               -0.3733769       -23.69994        -44.76454         -45.995             -200               0             -200               0
1.65789               -0.3843401       -23.93557        -44.44514       -49.62252             -200               0             -200               0
1.66447               -0.3956513       -24.17524        -44.13068       -53.28464             -200               0             -200               0
1.67105               -0.4073436       -24.41905        -43.82135       -56.97778             -200               0             -200               0
1.67763               -0.4194528       -24.66707        -43.51724       -60.69838             -200               0             -200               0
1.68421               -0.4320133       -24.91936        -43.21842         -64.443             -200               0             -200               0
1.69079               -0.4450615       -25.17597        -42.92489       -68.20831             -200               0             -200               0
1.69737               -0.4586322       -25.43689        -42.63662       -71.99114             -200               0             -200               0
1.70395               -0.4727611       -25.70214        -42.35351       -75.78845             -200               0             -200               0
1.71053               -0.4874818       -25.97169        -42.07544       -79.59738             -200               0             -200               0
1.71711               -0.5028275       -26.24549        -41.80225       -83.41525             -200               0             -200               0
1.72368               -0.5188276        -26.5235        -41.53376       -87.23957             -200               0             -200               0
1.73026               -0.5355109       -26.80564        -41.26974       -91.06806             -200               0             -200               0
1.73684               -0.5529035       -27.09185        -41.00995       -94.89863             -200               0             -200               0
1.74342               -0.5710272       -27.38204        -40.75412       -98.72941             -200               0             -200               0
1.75                  -0.5899037       -27.67615        -40.50196       -102.5588             -200               0             -200               0
1.75658               -0.6095493       -27.97407        -40.25315       -106.3852             -200               0             -200               0
1.76316               -0.6299789       -28.27577         -40.0074       -110.2077             -200               0             -200               0
1.76974               -0.6512036       -28.58116        -39.76435       -114.0252             -200               0             -200               0
1.77632               -0.6732337        -28.8902        -39.52368        -117.837             -200               0             -200               0
1.78289               -0.6960758       -29.20288        -39.28503       -121.6427             -200               0             -200               0
1.78947               -0.7197381       -29.51918        -39.04807       -125.4421             -200               0             -200               0
1.79605                -0.744225       -29.83913        -38.81245       -129.2352             -200               0             -200               0
1.80263               -0.7695417       -30.16276        -38.57784       -133.0223             -200               0             -200               0
1.80921               -0.7956918       -30.49015        -38.34391       -136.8039             -200               0             -200               0
1.81579               -0.8226845       -30.82141        -38.11034       -140.5808             -200               0             -200               0
1.82237               -0.8505265       -31.15666        -37.87685        -144.354             -200               0             -200               0
1.82895               -0.8792285       -31.49606        -37.64315       -148.1247             -200               0             -200               0
1.83553               -0.9088052        -31.8398          -37.409       -151.8942             -200               0             -200               0
1.84211               -0.9392748        -32.1881        -37.17417       -155.6642             -200               0             -200               0
1.84868               -0.9706601       -32.54119        -36.93847       -159.4362             -200               0             -200               0
1.85526                 -1.00299       -32.89933        -36.70174       -163.2123             -200               0             -200               0
1.86184                -1.036301       -33.26281        -36.46384       -166.9942             -200               0             -200               0
1.86842                -1.070632        -33.6319        -36.22469        -170.784             -200               0             -200               0
1.875                  -1.106035       -34.00689        -35.98423       -174.5838             -200               0             -200               0
1.88158                -1.142565        -34.3881        -35.74243       -178.3956             -200               0             -200               0
1.88816                -1.180286        -34.7758        -35.49931        177.7785             -200               0             -200               0
1.89474                -1.219272       -35.17028        -35.25492        173.9365             -200               0             -200               0
1.90132                -1.259601       -35.57182        -35.00934        170.0763             -200               0             -200               0
1.90789                -1.301362       -35.98066        -34.76267        166.1963             -200               0             -200               0
1.91447                -1.344652       -36.39701        -34.51507        162.2945             -200               0             -200               0
1.92105                -1.389574       -36.82107        -34.26669        158.3693             -200               0             -200               0
1.92763                -1.436237       -37.25299        -34.01772        154.4192             -200               0             -200               0
1.93421                -1.484761       -37.69287        -33.76838        150.4429             -200               0             -200               0
1.94079                -1.535266       -38.14079        -33.51888        146.4391             -200               0             -200               0
1.94737                -1.587882       -38.59674        -33.26946        142.4069             -200               0             -200               0
1.95395                -1.642742        -39.0607        -33.02036        138.3452             -200               0             -200               0
1.96053                -1.699983       -39.53257        -32.77185        134.2535             -200               0             -200               0
1.96711                -1.759745       -40.01218        -32.52418        130.1312             -200               0             -200               0
1.97368                -1.822173       -40.49935         -32.2776        125.9779             -200               0             -200               0
1.98026                 -1.88741       -40.99379        -32.03237        121.7934             -200               0             -200               0
1.98684                -1.955604       -41.49519        -31.78876        117.5775             -200               0             -200               0
1.99342                -2.026902       -42.00317          -31.547        113.3303             -200               0             -200               0
2                      -2.101451       -42.51728        -31.30735        109.0519             -200               0             -200               0
2.00658                -2.179399       -43.03704        -31.07003        104.7427             -200               0             -200               0
2.01316                -2.260892       -43.56191        -30.83528         100.403             -200               0             -200               0
2.01974                -2.346077        -44.0913         -30.6033        96.03325             -200               0             -200               0
2.02632                -2.435098       -44.62457        -30.37432        91.63401             -200               0             -200               0
2.03289                -2.528099       -45.16106        -30.14852         87.2059             -200               0             -200               0
2.03947                -2.625223       -45.70002        -29.92608        82.74961             -200               0             -200               0
2.04605                 -2.72661       -46.24073        -29.70719        78.26588             -200               0             -200               0
2.05263                -2.832403       -46.78238          -29.492        73.75548             -200               0             -200               0
2.05921                -2.942743       -47.32415        -29.28066        69.21924             -200               0             -200               0
2.06579                -3.057771       -47.86519        -29.07333        64.65801             -200               0             -200               0
2.07237                 -3.17763       -48.40462        -28.87012        60.07267             -200               0             -200               0
2.07895                -3.302463       -48.94154        -28.67117         55.4641             -200               0             -200               0
2.08553                -3.432419       -49.47499        -28.47658        50.83321             -200               0             -200               0
2.09211                -3.567651       -50.00402        -28.28645        46.18093             -200               0             -200               0
2.09868                -3.708314       -50.52762        -28.10088        41.50818             -200               0             -200               0
2.10526                -3.854571       -51.04476        -27.91996        36.81587             -200               0             -200               0
2.11184                -4.006594       -51.55436        -27.74376        32.10494             -200               0             -200               0
2.11842                -4.164564       -52.05532        -27.57236         27.3763             -200               0             -200               0
2.125                  -4.328673       -52.54643        -27.40582        22.63087             -200               0             -200               0
2.13158                -4.499127       -53.02646        -27.24419        17.86955             -200               0             -200               0
2.13816                -4.676145       -53.49409        -27.08754        13.09324             -200               0             -200               0
2.14474                -4.859966        -53.9479         -26.9359        8.302832             -200               0             -200               0
2.15132                -5.050843       -54.38637        -26.78932        3.499202             -200               0             -200               0
2.15789                -5.249057       -54.80781        -26.64784       -1.316782             -200               0             -200               0
2.16447                -5.454905        -55.2104        -26.51148       -6.144266             -200               0             -200               0
2.17105                -5.668713       -55.59213        -26.38029       -10.98241             -200               0             -200               0
2.17763                -5.890833       -55.95074        -26.25428       -15.83037             -200               0             -200               0
2.18421                -6.121646        -56.2837        -26.13348       -20.68734             -200               0             -200               0
2.19079                -6.361567       -56.58817         -26.0179        -25.5525             -200               0             -200               0
2.19737                -6.611037       -56.86094        -25.90756       -30.42506             -200               0             -200               0
2.20395                -6.870538       -57.09832        -25.80248       -35.30422             -200               0             -200               0
2.21053                -7.140583       -57.29614        -25.70267       -40.18921             -200               0             -200               0
2.21711                -7.421718       -57.44958        -25.60813       -45.07926             -200               0             -200               0
2.22368                -7.714527       -57.55309        -25.51887       -49.97362             -200               0             -200               0
2.23026                 -8.01962       -57.60029         -25.4349       -54.87152             -200               0             -200               0
2.23684                -8.337639       -57.58376        -25.35622       -59.77222             -200               0             -200               0
2.24342                -8.669235       -57.49488        -25.28283       -64.67498             -200               0             -200               0
2.25                   -9.015076       -57.32369        -25.21474       -69.57907             -200               0             -200               0
2.25658                -9.375811       -57.05849        -25.15194       -74.48377             -200               0             -200               0
2.26316                -9.752052       -56.68565        -25.09442       -79.38834             -200               0             -200               0
2.26974                -10.14433       -56.18927        -25.04219       -84.29206             -200               0             -200               0
2.27632                -10.55305       -55.55072        -24.99524       -89.19423             -200               0             -200               0
2.28289                 -10.9784       -54.74824        -24.95356       -94.09411             -200               0             -200               0
2.28947                -11.42024       -53.75651        -24.91714         -98.991             -200               0             -200               0