! TOUCHSTONE file generated by CST MICROWAVE STUDIO
! Date and time: Tue Mar 18 00:01:35 2025
! Project name: oblique.cst
! Parameters = {Tilt=30; Fracture=1; B=12.5; D=160; F=15; Feed=2.85625; L=100; M=50; R=0.384908; S=1; Theta=180; length=57.125; wave=114.25}
! Header version: 2024
! Port assignment regex: !\s*Touchstone port\s*([0-9]+)\s*=\s*(CST MWS port|CST DES external port|CST DES block port)\s*(.+)\s* \(\"(.*)\"\)(\s*mode\s*([0-9]+))?.*
! Touchstone port assignment:
! Touchstone port 1 = CST MWS port 1 ("")
! Touchstone port 2 = CST MWS port 2 ("")
# GHz S DB R 50
1                    -0.02126711       -9.861509        -68.10321         156.249             -200               0             -200               0
1.00662              -0.02201268       -9.950326         -68.1091        150.5551             -200               0             -200               0
1.01325              -0.02277343       -10.03972        -68.14877        144.9665             -200               0             -200               0
1.01987              -0.02354855       -10.12971        -68.22314        139.4927             -200               0             -200               0
1.02649              -0.02434038       -10.22031        -68.33334        134.1462             -200               0             -200               0
1.03311              -0.02514856       -10.31155        -68.48068        128.9424             -200               0             -200               0
1.03974              -0.02597327       -10.40342        -68.66673        123.9006             -200               0             -200               0
1.04636              -0.02681626       -10.49596        -68.89318        119.0454             -200               0             -200               0
1.05298              -0.02768092       -10.58917        -69.16191        114.4072             -200               0             -200               0
1.0596               -0.02856578       -10.68307         -69.4748        110.0249             -200               0             -200               0
1.06623              -0.02947426       -10.77768        -69.83361        105.9476             -200               0             -200               0
1.07285              -0.03040659         -10.873        -70.23964        102.2379             -200               0             -200               0
1.07947              -0.03136613       -10.96905        -70.69311        98.97551             -200               0             -200               0
1.08609              -0.03235371       -11.06584        -71.19227        96.26127             -200               0             -200               0
1.09272              -0.03337064       -11.16338        -71.73166          94.221             -200               0             -200               0
1.09934              -0.03442147       -11.26167        -72.29955        93.00608             -200               0             -200               0
1.10596              -0.03550446       -11.36072        -72.87404        92.78554             -200               0             -200               0
1.11258               -0.0366242       -11.46054        -73.41832         93.7193             -200               0             -200               0
1.11921              -0.03777945       -11.56114        -73.87702        95.89896             -200               0             -200               0
1.12583              -0.03897441        -11.6625          -74.179        99.25322             -200               0             -200               0
1.13245              -0.04020783       -11.76465        -74.25301        103.4565             -200               0             -200               0
1.13907              -0.04148118       -11.86758        -74.05558        107.9335             -200               0             -200               0
1.1457               -0.04279542        -11.9713        -73.59327         112.021             -200               0             -200               0
1.15232              -0.04415094       -12.07581        -72.91901        115.1969             -200               0             -200               0
1.15894              -0.04554859       -12.18111         -72.1061        117.2046             -200               0             -200               0
1.16556               -0.0469872       -12.28722        -71.22241        118.0236             -200               0             -200               0
1.17219              -0.04846699       -12.39413        -70.31834        117.7707             -200               0             -200               0
1.17881              -0.04998819       -12.50185        -69.42632        116.6131             -200               0             -200               0
1.18543              -0.05154934       -12.61041        -68.56503        114.7175             -200               0             -200               0
1.19205              -0.05315105       -12.71979        -67.74409        112.2302             -200               0             -200               0
1.19868              -0.05479231       -12.83003        -66.96755        109.2717             -200               0             -200               0
1.2053               -0.05647131       -12.94114        -66.23629        105.9385             -200               0             -200               0
1.21192              -0.05818899       -13.05312        -65.54944        102.3071             -200               0             -200               0
1.21854              -0.05994344       -13.16602        -64.90522        98.43799             -200               0             -200               0
1.22517              -0.06173525       -13.27983        -64.30148        94.37939             -200               0             -200               0
1.23179              -0.06356295        -13.3946        -63.73596        90.16988             -200               0             -200               0
1.23841              -0.06542739       -13.51035        -63.20642        85.84072             -200               0             -200               0
1.24503              -0.06732841        -13.6271        -62.71074         81.4175             -200               0             -200               0
1.25166              -0.06926628       -13.74489        -62.24696        76.92144             -200               0             -200               0
1.25828              -0.07124171       -13.86375        -61.81326        72.37036             -200               0             -200               0
1.2649               -0.07325524       -13.98371        -61.40799        67.77947             -200               0             -200               0
1.27152              -0.07530899        -14.1048        -61.02964        63.16191             -200               0             -200               0
1.27815              -0.07740565       -14.22706        -60.67681        58.52923             -200               0             -200               0
1.28477              -0.07954672       -14.35053        -60.34825        53.89176             -200               0             -200               0
1.29139              -0.08173364       -14.47522        -60.04279        49.25882             -200               0             -200               0
1.29801              -0.08397047       -14.60119        -59.75934        44.63906             -200               0             -200               0
1.30464              -0.08625972       -14.72847        -59.49688        40.04052             -200               0             -200               0
1.31126              -0.08860618       -14.85708        -59.25444        35.47085             -200               0             -200               0
1.31788              -0.09101225       -14.98705         -59.0311        30.93744             -200               0             -200               0
1.3245               -0.09348312       -15.11842        -58.82595        26.44744             -200               0             -200               0
1.33113              -0.09602193       -15.25122        -58.63807        22.00788             -200               0             -200               0
1.33775              -0.09863399       -15.38546        -58.46655        17.62574             -200               0             -200               0
1.34437               -0.1013236       -15.52118        -58.31045        13.30794             -200               0             -200               0
1.35099               -0.1040951        -15.6584        -58.16878        9.061389             -200               0             -200               0
1.35762               -0.1069521       -15.79714        -58.04048        4.892968             -200               0             -200               0
1.36424               -0.1099009       -15.93742        -57.92442        0.809491             -200               0             -200               0
1.37086               -0.1129458       -16.07926        -57.81938       -3.182345             -200               0             -200               0
1.37748               -0.1160894       -16.22268        -57.72399       -7.076054             -200               0             -200               0
1.38411               -0.1193377       -16.36769        -57.63677       -10.86548             -200               0             -200               0
1.39073               -0.1226928       -16.51431        -57.55607       -14.54497             -200               0             -200               0
1.39735               -0.1261607       -16.66257         -57.4801       -18.10957             -200               0             -200               0
1.40397               -0.1297433       -16.81247        -57.40689       -21.55531             -200               0             -200               0
1.4106                -0.1334442       -16.96404        -57.33428       -24.87944             -200               0             -200               0
1.41722               -0.1372676        -17.1173        -57.26001       -28.08079             -200               0             -200               0
1.42384               -0.1412151       -17.27226        -57.18163       -31.16009             -200               0             -200               0
1.43046               -0.1452913       -17.42895        -57.09666       -34.12031             -200               0             -200               0
1.43709               -0.1494983        -17.5874        -57.00256       -36.96693             -200               0             -200               0
1.44371               -0.1538398       -17.74762        -56.89685       -39.70816             -200               0             -200               0
1.45033               -0.1583173       -17.90965        -56.77717       -42.35502             -200               0             -200               0
1.45695               -0.1629341       -18.07352        -56.64143       -44.92127             -200               0             -200               0
1.46358               -0.1676943       -18.23926        -56.48783       -47.42316             -200               0             -200               0
1.4702                -0.1726009       -18.40691        -56.31504       -49.87898             -200               0             -200               0
1.47682               -0.1776564       -18.57651        -56.12217       -52.30846             -200               0             -200               0
1.48344               -0.1828657       -18.74811        -55.90892       -54.73202             -200               0             -200               0
1.49007               -0.1882323       -18.92173         -55.6755       -57.16995             -200               0             -200               0
1.49669                -0.193762       -19.09744        -55.42267       -59.64161             -200               0             -200               0
1.50331               -0.1994586       -19.27528        -55.15165       -62.16476             -200               0             -200               0
1.50993               -0.2053286       -19.45529        -54.86407       -64.75494             -200               0             -200               0
1.51656               -0.2113764       -19.63753        -54.56183       -67.42514             -200               0             -200               0
1.52318                -0.217611       -19.82205        -54.24705       -70.18554             -200               0             -200               0
1.5298                -0.2240373        -20.0089        -53.92195       -73.04355             -200               0             -200               0
1.53642               -0.2306646       -20.19813        -53.58875       -76.00391             -200               0             -200               0
1.54305               -0.2375012        -20.3898        -53.24964       -79.06894             -200               0             -200               0
1.54967               -0.2445545       -20.58395        -52.90667       -82.23883             -200               0             -200               0
1.55629               -0.2518341       -20.78064        -52.56175       -85.51201             -200               0             -200               0
1.56291               -0.2593517        -20.9799        -52.21662       -88.88545             -200               0             -200               0
1.56954               -0.2671153        -21.1818        -51.87282       -92.35502             -200               0             -200               0
1.57616               -0.2751343       -21.38638        -51.53171       -95.91572             -200               0             -200               0
1.58278               -0.2834222       -21.59367        -51.19447       -99.56201             -200               0             -200               0
1.5894                -0.2919888       -21.80372        -50.86208       -103.2879             -200               0             -200               0
1.59603               -0.3008453       -22.01657        -50.53539       -107.0873             -200               0             -200               0
1.60265               -0.3100031       -22.23227         -50.2151        -110.954             -200               0             -200               0
1.60927               -0.3194729       -22.45084        -49.90175       -114.8817             -200               0             -200               0
1.61589               -0.3292676       -22.67233        -49.59579       -118.8644             -200               0             -200               0
1.62252               -0.3393967       -22.89676        -49.29756        -122.896             -200               0             -200               0
1.62914               -0.3498732       -23.12419        -49.00729       -126.9709             -200               0             -200               0
1.63576               -0.3607083       -23.35464        -48.72516       -131.0834             -200               0             -200               0
1.64238               -0.3719129       -23.58816        -48.45125       -135.2281             -200               0             -200               0
1.64901               -0.3834986       -23.82477        -48.18559       -139.4001             -200               0             -200               0
1.65563               -0.3954765       -24.06453        -47.92816       -143.5944             -200               0             -200               0
1.66225               -0.4078587       -24.30748        -47.67887       -147.8062             -200               0             -200               0
1.66887               -0.4206562       -24.55365        -47.43761       -152.0313             -200               0             -200               0
1.6755                -0.4338803       -24.80311         -47.2042       -156.2654             -200               0             -200               0
1.68212               -0.4475437       -25.05589        -46.97844       -160.5044             -200               0             -200               0
1.68874               -0.4616582       -25.31207         -46.7601       -164.7445             -200               0             -200               0
1.69536               -0.4762358       -25.57171         -46.5489       -168.9822             -200               0             -200               0
1.70199               -0.4912919       -25.83486        -46.34455        -173.214             -200               0             -200               0
1.70861               -0.5068386       -26.10161         -46.1467       -177.4367             -200               0             -200               0
1.71523               -0.5228909       -26.37201        -45.95498        178.3526             -200               0             -200               0
1.72185               -0.5394651       -26.64617        -45.76901        174.1568             -200               0             -200               0
1.72848               -0.5565773       -26.92415        -45.58837        169.9784             -200               0             -200               0
1.7351                -0.5742455       -27.20605         -45.4126        165.8197             -200               0             -200               0
1.74172               -0.5924885       -27.49196        -45.24122        161.6829             -200               0             -200               0
1.74834                -0.611326       -27.78198        -45.07373        157.5698             -200               0             -200               0
1.75497               -0.6307818        -28.0762        -44.90961        153.4819             -200               0             -200               0
1.76159                -0.650877       -28.37472        -44.74832        149.4204             -200               0             -200               0
1.76821               -0.6716384       -28.67764        -44.58927        145.3863             -200               0             -200               0
1.77483               -0.6930908       -28.98507         -44.4319        141.3802             -200               0             -200               0
1.78146               -0.7152642       -29.29709        -44.27561        137.4023             -200               0             -200               0
1.78808               -0.7381878       -29.61382         -44.1198        133.4523             -200               0             -200               0
1.7947                -0.7618918       -29.93535        -43.96386        129.5299             -200               0             -200               0
1.80132               -0.7864117       -30.26177        -43.80722        125.6339             -200               0             -200               0
1.80795               -0.8117815       -30.59318        -43.64927        121.7629             -200               0             -200               0
1.81457                -0.838038       -30.92966        -43.48947        117.9153             -200               0             -200               0
1.82119               -0.8652195        -31.2713        -43.32727        114.0887             -200               0             -200               0
1.82781               -0.8933652       -31.61817        -43.16219        110.2805             -200               0             -200               0
1.83444               -0.9225166       -31.97037        -42.99376        106.4878             -200               0             -200               0
1.84106               -0.9527155       -32.32794        -42.82159        102.7072             -200               0             -200               0
1.84768               -0.9840067       -32.69095        -42.64533        98.93503             -200               0             -200               0
1.8543                 -1.016435       -33.05948        -42.46471        95.16753             -200               0             -200               0
1.86093                -1.050048       -33.43358        -42.27952         91.4006             -200               0             -200               0
1.86755                 -1.08489       -33.81329        -42.08963        87.63009             -200               0             -200               0
1.87417                -1.121014       -34.19868        -41.89497        83.85174             -200               0             -200               0
1.88079                -1.158469       -34.58978        -41.69556        80.06136             -200               0             -200               0
1.88742                -1.197306       -34.98665        -41.49149        76.25479             -200               0             -200               0
1.89404                -1.237577       -35.38933        -41.28291        72.42804             -200               0             -200               0
1.90066                 -1.27934       -35.79786        -41.07005        68.57731             -200               0             -200               0
1.90728                -1.322648       -36.21229        -40.85319        64.69905             -200               0             -200               0
1.91391                -1.367562       -36.63268        -40.63266        60.78997             -200               0             -200               0
1.92053                 -1.41414       -37.05906        -40.40884        56.84715             -200               0             -200               0
1.92715                -1.462445        -37.4915        -40.18213        52.86798             -200               0             -200               0
1.93377                -1.512545       -37.93005        -39.95299        48.85021             -200               0             -200               0
1.9404                 -1.564504       -38.37476        -39.72186        44.79198             -200               0             -200               0
1.94702                -1.618399        -38.8257        -39.48923        40.69175             -200               0             -200               0
1.95364                -1.674301       -39.28295        -39.25557        36.54836             -200               0             -200               0
1.96026                -1.732293       -39.74657        -39.02136        32.36097             -200               0             -200               0
1.96689                -1.792458       -40.21663        -38.78707        28.12906             -200               0             -200               0
1.97351                -1.854886       -40.69321        -38.55315        23.85239             -200               0             -200               0
1.98013                -1.919674        -41.1764        -38.32006        19.53099             -200               0             -200               0
1.98675                -1.986922       -41.66625        -38.08821        15.16513             -200               0             -200               0
1.99338                -2.056739       -42.16285        -37.85801        10.75528             -200               0             -200               0
2                      -2.129243       -42.66627        -37.62986        6.302101             -200               0             -200               0
2.00662                -2.204556       -43.17656        -37.40409        1.806409             -200               0             -200               0
2.01325                -2.282812       -43.69376        -37.18106       -2.730849             -200               0             -200               0
2.01987                -2.364151       -44.21792        -36.96107       -7.308619             -200               0             -200               0
2.02649                -2.448726       -44.74904        -36.74442       -11.92575             -200               0             -200               0
2.03311                -2.536699       -45.28713        -36.53136       -16.58103             -200               0             -200               0
2.03974                -2.628243       -45.83214        -36.32214        -21.2732             -200               0             -200               0
2.04636                 -2.72354       -46.38399        -36.11699       -26.00093             -200               0             -200               0
2.05298                -2.822786       -46.94259         -35.9161       -30.76291             -200               0             -200               0
2.0596                 -2.926192       -47.50778        -35.71965       -35.55779             -200               0             -200               0
2.06623                -3.033978       -48.07936        -35.52782       -40.38422             -200               0             -200               0
2.07285                 -3.14638       -48.65706        -35.34074       -45.24084             -200               0             -200               0
2.07947                -3.263647       -49.24057        -35.15856       -50.12634             -200               0             -200               0
2.08609                -3.386045       -49.82949        -34.98139       -55.03938             -200               0             -200               0
2.09272                -3.513854       -50.42334        -34.80933       -59.97867             -200               0             -200               0
2.09934                -3.647372       -51.02156        -34.64248       -64.94294             -200               0             -200               0
2.10596                -3.786913       -51.62349        -34.48092       -69.93093             -200               0             -200               0
2.11258                -3.932809       -52.22836        -34.32473       -74.94144             -200               0             -200               0
2.11921                -4.085415       -52.83528        -34.17396       -79.97326             -200               0             -200               0
2.12583                  -4.2451       -53.44322        -34.02868       -85.02525             -200               0             -200               0
2.13245                -4.412262       -54.05102        -33.88893       -90.09628             -200               0             -200               0
2.13907                -4.587316       -54.65735        -33.75475       -95.18525             -200               0             -200               0
2.1457                 -4.770708       -55.26069        -33.62619       -100.2911             -200               0             -200               0
2.15232                -4.962908       -55.85933        -33.50327       -105.4128             -200               0             -200               0
2.15894                -5.164414       -56.45132        -33.38601       -110.5493             -200               0             -200               0
2.16556                 -5.37576       -57.03446        -33.27445       -115.6998             -200               0             -200               0
2.17219                 -5.59751       -57.60629        -33.16859       -120.8631             -200               0             -200               0
2.17881                 -5.83027       -58.16396        -33.06846       -126.0384             -200               0             -200               0
2.18543                -6.074685       -58.70431        -32.97407       -131.2249             -200               0             -200               0
2.19205                -6.331447       -59.22369        -32.88542       -136.4216             -200               0             -200               0
2.19868                -6.601298       -59.71798        -32.80253       -141.6277             -200               0             -200               0
2.2053                 -6.885034       -60.18244        -32.72541       -146.8423             -200               0             -200               0
2.21192                -7.183514       -60.61168        -32.65406       -152.0647             -200               0             -200               0
2.21854                 -7.49766       -60.99947        -32.58848       -157.2941             -200               0             -200               0
2.22517                -7.828465       -61.33858        -32.52868       -162.5297             -200               0             -200               0
2.23179                -8.177002       -61.62066        -32.47466       -167.7708             -200               0             -200               0
2.23841                 -8.54442       -61.83591        -32.42643       -173.0165             -200               0             -200               0
2.24503                -8.931956       -61.97284        -32.38397       -178.2663             -200               0             -200               0
2.25166                -9.340922       -62.01784         -32.3473        176.4807             -200               0             -200               0
2.25828                 -9.77271       -61.95471        -32.31642        171.2252             -200               0             -200               0
2.2649                 -10.22876       -61.76412        -32.29132        165.9677             -200               0             -200               0
2.27152                -10.71054        -61.4227        -32.27201        160.7091             -200               0             -200               0
2.27815                -11.21946       -60.90218        -32.25848          155.45             -200               0             -200               0
2.28477                 -11.7568       -60.16814        -32.25074        150.1911             -200               0             -200               0
2.29139                -12.32349        -59.1785        -32.24879         144.933             -200               0             -200               0
2.29801                -12.91986       -57.88179        -32.25263        139.6765             -200               0             -200               0