! TOUCHSTONE file generated by CST MICROWAVE STUDIO
! Date and time: Tue Mar 18 00:01:07 2025
! Project name: oblique.cst
! Parameters = {Tilt=30; Fracture=1; B=10; D=160; F=25; Feed=2.85625; L=100; M=10; R=0.384908; S=2; Theta=270; length=57.125; wave=114.25}
! Header version: 2024
! Port assignment regex: !\s*Touchstone port\s*([0-9]+)\s*=\s*(CST MWS port|CST DES external port|CST DES block port)\s*(.+)\s* \(\"(.*)\"\)(\s*mode\s*([0-9]+))?.*
! Touchstone port assignment:
! Touchstone port 1 = CST MWS port 1 ("")
! Touchstone port 2 = CST MWS port 2 ("")
# GHz S DB R 50
1                    -0.01929245       -9.777259        -68.72879       -163.1376             -200               0             -200               0
1.00658              -0.02004529       -9.865318        -68.61822       -166.7032             -200               0             -200               0
1.01316               -0.0208307       -9.953855        -68.52125       -170.1389             -200               0             -200               0
1.01974              -0.02164588       -10.04287        -68.43586       -173.4349             -200               0             -200               0
1.02632              -0.02248785       -10.13235        -68.35976       -176.5821             -200               0             -200               0
1.03289              -0.02335567       -10.22232        -68.29035       -179.5719             -200               0             -200               0
1.03947              -0.02424416       -10.31277        -68.22473        177.6027             -200               0             -200               0
1.04605              -0.02515308       -10.40372        -68.15968        174.9467             -200               0             -200               0
1.05263              -0.02607756       -10.49518        -68.09165        172.4628             -200               0             -200               0
1.05921              -0.02701716       -10.58718        -68.01683        170.1499             -200               0             -200               0
1.06579              -0.02796877       -10.67973        -67.93124        168.0032             -200               0             -200               0
1.07237              -0.02893129       -10.77287        -67.83085         166.013             -200               0             -200               0
1.07895              -0.02990403       -10.86662        -67.71174        164.1642             -200               0             -200               0
1.08553              -0.03088567       -10.96101        -67.57033        162.4367             -200               0             -200               0
1.09211              -0.03187643       -11.05608        -67.40356        160.8053             -200               0             -200               0
1.09868              -0.03287649       -11.15184        -67.20914        159.2408             -200               0             -200               0
1.10526              -0.03388851       -11.24835        -66.98571        157.7109             -200               0             -200               0
1.11184              -0.03491266       -11.34562        -66.73291        156.1825             -200               0             -200               0
1.11842              -0.03595178        -11.4437        -66.45142        154.6228             -200               0             -200               0
1.125                -0.03700853        -11.5426        -66.14289        153.0013             -200               0             -200               0
1.13158              -0.03808789       -11.64235        -65.80977        151.2914             -200               0             -200               0
1.13816              -0.03919225       -11.74299        -65.45512        149.4711             -200               0             -200               0
1.14474              -0.04032573       -11.84452         -65.0824        147.5239             -200               0             -200               0
1.15132              -0.04149292       -11.94696        -64.69524        145.4381             -200               0             -200               0
1.15789              -0.04269869       -12.05033        -64.29726        143.2074             -200               0             -200               0
1.16447               -0.0439468       -12.15463        -63.89193        140.8296             -200               0             -200               0
1.17105              -0.04524191       -12.25987        -63.48243         138.306             -200               0             -200               0
1.17763              -0.04658857       -12.36604        -63.07166        135.6411             -200               0             -200               0
1.18421              -0.04798946       -12.47315        -62.66214        132.8413             -200               0             -200               0
1.19079              -0.04944995       -12.58119        -62.25604        129.9144             -200               0             -200               0
1.19737              -0.05097133       -12.69015         -61.8552        126.8695             -200               0             -200               0
1.20395              -0.05255705       -12.80002        -61.46114         123.716             -200               0             -200               0
1.21053              -0.05420898       -12.91079        -61.07509        120.4635             -200               0             -200               0
1.21711              -0.05592712       -13.02244        -60.69804        117.1217             -200               0             -200               0
1.22368              -0.05771439       -13.13496        -60.33076        113.7001             -200               0             -200               0
1.23026              -0.05956806       -13.24834        -59.97383        110.2078             -200               0             -200               0
1.23684              -0.06148892       -13.36257        -59.62768        106.6537             -200               0             -200               0
1.24342              -0.06347512       -13.47764        -59.29261        103.0461             -200               0             -200               0
1.25                 -0.06552521       -13.59355        -58.96878        99.39291             -200               0             -200               0
1.25658              -0.06763601       -13.71028        -58.65628        95.70173             -200               0             -200               0
1.26316              -0.06980519       -13.82786        -58.35512        91.97968             -200               0             -200               0
1.26974              -0.07203035       -13.94628        -58.06522        88.23349             -200               0             -200               0
1.27632              -0.07430665       -14.06555        -57.78645        84.46955             -200               0             -200               0
1.28289              -0.07663224       -14.18569        -57.51862        80.69389             -200               0             -200               0
1.28947              -0.07900244       -14.30673        -57.26151        76.91226             -200               0             -200               0
1.29605              -0.08141495        -14.4287        -57.01485        73.13009             -200               0             -200               0
1.30263              -0.08386671       -14.55161        -56.77831        69.35256             -200               0             -200               0
1.30921               -0.0863549       -14.67552        -56.55155        65.58459             -200               0             -200               0
1.31579              -0.08887816       -14.80046        -56.33418        61.83085             -200               0             -200               0
1.32237              -0.09143441       -14.92648        -56.12577        58.09578             -200               0             -200               0
1.32895              -0.09402346       -15.05363        -55.92585        54.38361             -200               0             -200               0
1.33553              -0.09664446       -15.18195        -55.73392         50.6983             -200               0             -200               0
1.34211              -0.09929853       -15.31151        -55.54946         47.0436             -200               0             -200               0
1.34868               -0.1019883       -15.44235        -55.37187        43.42299             -200               0             -200               0
1.35526               -0.1047137       -15.57453        -55.20054        39.83967             -200               0             -200               0
1.36184                 -0.10748        -15.7081        -55.03482        36.29656             -200               0             -200               0
1.36842               -0.1102888       -15.84311        -54.87401        32.79623             -200               0             -200               0
1.375                 -0.1131462       -15.97962        -54.71738         29.3409             -200               0             -200               0
1.38158               -0.1160566       -16.11766        -54.56416        25.93238             -200               0             -200               0
1.38816               -0.1190255       -16.25729        -54.41355        22.57206             -200               0             -200               0
1.39474               -0.1220577       -16.39854        -54.26474         19.2608             -200               0             -200               0
1.40132               -0.1251607       -16.54146        -54.11686        15.99896             -200               0             -200               0
1.40789               -0.1283396       -16.68606        -53.96906        12.78634             -200               0             -200               0
1.41447               -0.1316011       -16.83239        -53.82048        9.622106             -200               0             -200               0
1.42105               -0.1349512       -16.98046        -53.67025        6.504822             -200               0             -200               0
1.42763                -0.138396       -17.13031        -53.51756        3.432395             -200               0             -200               0
1.43421               -0.1419404       -17.28194         -53.3616       0.4020887             -200               0             -200               0
1.44079               -0.1455901       -17.43538        -53.20161       -2.589464             -200               0             -200               0
1.44737               -0.1493491       -17.59064        -53.03691       -5.546222             -200               0             -200               0
1.45395                -0.153222       -17.74774        -52.86689       -8.472691             -200               0             -200               0
1.46053               -0.1572113       -17.90668        -52.69104       -11.37384             -200               0             -200               0
1.46711               -0.1613198        -18.0675        -52.50893       -14.25504             -200               0             -200               0
1.47368               -0.1655507        -18.2302        -52.32026       -17.12191             -200               0             -200               0
1.48026               -0.1699056       -18.39481        -52.12485       -19.98025             -200               0             -200               0
1.48684               -0.1743835       -18.56135        -51.92263       -22.83589             -200               0             -200               0
1.49342               -0.1789864       -18.72986        -51.71364       -25.69457             -200               0             -200               0
1.5                   -0.1837148       -18.90036        -51.49805       -28.56184             -200               0             -200               0
1.50658                -0.188568       -19.07291        -51.27612       -31.44293             -200               0             -200               0
1.51316               -0.1935461       -19.24755        -51.04821       -34.34266             -200               0             -200               0
1.51974               -0.1986486       -19.42434        -50.81478       -37.26536             -200               0             -200               0
1.52632               -0.2038767       -19.60335        -50.57632       -40.21483             -200               0             -200               0
1.53289               -0.2092301       -19.78464         -50.3334       -43.19425             -200               0             -200               0
1.53947                -0.214712       -19.96831        -50.08661       -46.20622             -200               0             -200               0
1.54605               -0.2203224       -20.15443        -49.83658       -49.25273             -200               0             -200               0
1.55263               -0.2260654        -20.3431        -49.58392       -52.33514             -200               0             -200               0
1.55921               -0.2319448       -20.53444        -49.32926       -55.45429             -200               0             -200               0
1.56579               -0.2379676       -20.72853        -49.07321       -58.61046             -200               0             -200               0
1.57237               -0.2441379        -20.9255        -48.81634       -61.80344             -200               0             -200               0
1.57895               -0.2504683       -21.12546         -48.5592       -65.03259             -200               0             -200               0
1.58553               -0.2569654       -21.32854        -48.30229       -68.29689             -200               0             -200               0
1.59211               -0.2636435       -21.53484        -48.04608       -71.59498             -200               0             -200               0
1.59868               -0.2705162       -21.74449        -47.79098       -74.92524             -200               0             -200               0
1.60526               -0.2775966       -21.95762        -47.53736        -78.2858             -200               0             -200               0
1.61184               -0.2849054       -22.17432        -47.28554       -81.67463             -200               0             -200               0
1.61842               -0.2924565       -22.39472        -47.03578       -85.08955             -200               0             -200               0
1.625                 -0.3002744       -22.61893        -46.78829        -88.5283             -200               0             -200               0
1.63158               -0.3083787       -22.84703        -46.54326       -91.98855             -200               0             -200               0
1.63816               -0.3167925       -23.07912        -46.30079       -95.46796             -200               0             -200               0
1.64474                 -0.32554        -23.3153        -46.06097        -98.9642             -200               0             -200               0
1.65132               -0.3346462       -23.55563        -45.82383        -102.475             -200               0             -200               0
1.65789               -0.3441373       -23.80018        -45.58937        -105.998             -200               0             -200               0
1.66447               -0.3540377       -24.04902        -45.35754       -109.5312             -200               0             -200               0
1.67105               -0.3643745       -24.30218        -45.12825       -113.0725             -200               0             -200               0
1.67763                -0.375175       -24.55972        -44.90139       -116.6199             -200               0             -200               0
1.68421               -0.3864651       -24.82166        -44.67682       -120.1718             -200               0             -200               0
1.69079               -0.3982717       -25.08803        -44.45437       -123.7264             -200               0             -200               0
1.69737                 -0.41062       -25.35885        -44.23382       -127.2824             -200               0             -200               0
1.70395               -0.4235352       -25.63414        -44.01496       -130.8385             -200               0             -200               0
1.71053               -0.4370429        -25.9139        -43.79755       -134.3936             -200               0             -200               0
1.71711               -0.4511665       -26.19814        -43.58134       -137.9469             -200               0             -200               0
1.72368               -0.4659295       -26.48687        -43.36604       -141.4978             -200               0             -200               0
1.73026               -0.4813546        -26.7801        -43.15138        -145.046             -200               0             -200               0
1.73684                -0.497464       -27.07783        -42.93709       -148.5911             -200               0             -200               0
1.74342               -0.5142792       -27.38008        -42.72286       -152.1334             -200               0             -200               0
1.75                  -0.5318201       -27.68687        -42.50843       -155.6731             -200               0             -200               0
1.75658               -0.5501073       -27.99822        -42.29351       -159.2107             -200               0             -200               0
1.76316               -0.5691623       -28.31417        -42.07784       -162.7471             -200               0             -200               0
1.76974               -0.5890041       -28.63475        -41.86117       -166.2833             -200               0             -200               0
1.77632               -0.6096543       -28.96003        -41.64326       -169.8203             -200               0             -200               0
1.78289               -0.6311361       -29.29007        -41.42391       -173.3597             -200               0             -200               0
1.78947               -0.6534699       -29.62493        -41.20293       -176.9028             -200               0             -200               0
1.79605               -0.6766813       -29.96472        -40.98016        179.5485             -200               0             -200               0
1.80263                -0.700794       -30.30953        -40.75548        175.9924             -200               0             -200               0
1.80921               -0.7258376       -30.65946        -40.52879         172.427             -200               0             -200               0
1.81579                -0.751842       -31.01465        -40.30003        168.8505             -200               0             -200               0
1.82237               -0.7788391       -31.37523        -40.06918        165.2606             -200               0             -200               0
1.82895               -0.8068658       -31.74133        -39.83625        161.6554             -200               0             -200               0
1.83553               -0.8359619       -32.11311        -39.60128        158.0328             -200               0             -200               0
1.84211               -0.8661687       -32.49073        -39.36434        154.3909             -200               0             -200               0
1.84868               -0.8975354       -32.87432        -39.12555        150.7278             -200               0             -200               0
1.85526               -0.9301134       -33.26408        -38.88504        147.0416             -200               0             -200               0
1.86184               -0.9639578       -33.66013        -38.64298        143.3307             -200               0             -200               0
1.86842               -0.9991305       -34.06266        -38.39955        139.5933             -200               0             -200               0
1.875                  -1.035697       -34.47179        -38.15498        135.8282             -200               0             -200               0
1.88158                -1.073728       -34.88768        -37.90948         132.034             -200               0             -200               0
1.88816                -1.113298       -35.31045         -37.6633        128.2095             -200               0             -200               0
1.89474                 -1.15449       -35.74022         -37.4167        124.3539             -200               0             -200               0
1.90132                -1.197389       -36.17709        -37.16993        120.4664             -200               0             -200               0
1.90789                -1.242087       -36.62113        -36.92328        116.5462             -200               0             -200               0
1.91447                -1.288677        -37.0724          -36.677         112.593             -200               0             -200               0
1.92105                -1.337263       -37.53092        -36.43138        108.6064             -200               0             -200               0
1.92763                -1.387949        -37.9967        -36.18668        104.5864             -200               0             -200               0
1.93421                -1.440847       -38.46971        -35.94317        100.5328             -200               0             -200               0
1.94079                -1.496071        -38.9499         -35.7011         96.4458             -200               0             -200               0
1.94737                 -1.55374       -39.43715        -35.46073        92.32565             -200               0             -200               0
1.95395                -1.613975       -39.93135         -35.2223         88.1727             -200               0             -200               0
1.96053                -1.676907       -40.43232        -34.98605        83.98739             -200               0             -200               0
1.96711                -1.742664       -40.93986        -34.75218        79.77027             -200               0             -200               0
1.97368                -1.811383       -41.45371        -34.52092        75.52197             -200               0             -200               0
1.98026                -1.883202       -41.97358        -34.29246        71.24317             -200               0             -200               0
1.98684                -1.958261       -42.49914          -34.067        66.93462             -200               0             -200               0
1.99342                -2.036704       -43.02999         -33.8447        62.59714             -200               0             -200               0
2                      -2.118683       -43.56572        -33.62573        58.23157             -200               0             -200               0
2.00658                -2.204347       -44.10584        -33.41025        53.83878             -200               0             -200               0
2.01316                -2.293849       -44.64982        -33.19839        49.41969             -200               0             -200               0
2.01974                 -2.38735       -45.19709        -32.99028        44.97523             -200               0             -200               0
2.02632                 -2.48501       -45.74701        -32.78605        40.50634             -200               0             -200               0
2.03289                -2.586993       -46.29889         -32.5858        36.01399             -200               0             -200               0
2.03947                -2.693466       -46.85198        -32.38963        31.49913             -200               0             -200               0
2.04605                -2.804601       -47.40547        -32.19765        26.96274             -200               0             -200               0
2.05263                -2.920575        -47.9585        -32.00992        22.40578             -200               0             -200               0
2.05921                -3.041566       -48.51011        -31.82652        17.82922             -200               0             -200               0
2.06579                -3.167758        -49.0593        -31.64752        13.23402             -200               0             -200               0
2.07237                -3.299337       -49.60498        -31.47298        8.621114             -200               0             -200               0
2.07895                -3.436501       -50.14596        -31.30296        3.991459             -200               0             -200               0
2.08553                -3.579444       -50.68098        -31.13749      -0.6540216             -200               0             -200               0
2.09211                 -3.72837       -51.20867        -30.97662       -5.314409             -200               0             -200               0
2.09868                -3.883491       -51.72757        -30.82039       -9.988798             -200               0             -200               0
2.10526                -4.045021       -52.23608        -30.66883        -14.6763             -200               0             -200               0
2.11184                -4.213182        -52.7325        -30.52196       -19.37603             -200               0             -200               0
2.11842                -4.388201       -53.21495         -30.3798       -24.08712             -200               0             -200               0
2.125                  -4.570315       -53.68142        -30.24237       -28.80874             -200               0             -200               0
2.13158                -4.759766       -54.12972        -30.10968       -33.54003             -200               0             -200               0
2.13816                -4.956801       -54.55746        -29.98175       -38.28018             -200               0             -200               0
2.14474                -5.161676       -54.96204        -29.85858       -43.02837             -200               0             -200               0
2.15132                -5.374652       -55.34061        -29.74017       -47.78382             -200               0             -200               0
2.15789                -5.595996       -55.69005        -29.62653       -52.54572             -200               0             -200               0
2.16447                -5.825978       -56.00692        -29.51764       -57.31332             -200               0             -200               0
2.17105                -6.064872       -56.28748        -29.41351       -62.08586             -200               0             -200               0
2.17763                -6.312951       -56.52755        -29.31413       -66.86258             -200               0             -200               0
2.18421                -6.570489       -56.72256        -29.21949       -71.64274             -200               0             -200               0
2.19079                -6.837749        -56.8674        -29.12958       -76.42562             -200               0             -200               0
2.19737                -7.114984       -56.95645        -29.04438        -81.2105             -200               0             -200               0
2.20395                -7.402426       -56.98344        -28.96387       -85.99666             -200               0             -200               0
2.21053                 -7.70028       -56.94142        -28.88805       -90.78341             -200               0             -200               0
2.21711                -8.008709        -56.8226        -28.81688       -95.57005             -200               0             -200               0
2.22368                -8.327819       -56.61836        -28.75035       -100.3559             -200               0             -200               0
2.23026                -8.657636       -56.31907        -28.68843       -105.1403             -200               0             -200               0
2.23684                -8.998084       -55.91404        -28.63109       -109.9225             -200               0             -200               0
2.24342                -9.348944       -55.39135        -28.57831       -114.7019             -200               0             -200               0
2.25                   -9.709819       -54.73786        -28.53006       -119.4778             -200               0             -200               0
2.25658                -10.08007       -53.93906         -28.4863       -124.2496             -200               0             -200               0
2.26316                -10.45876       -52.97914          -28.447       -129.0167             -200               0             -200               0
2.26974                -10.84456       -51.84102        -28.41213       -133.7783             -200               0             -200               0
2.27632                -11.23566       -50.50655        -28.38164       -138.5338             -200               0             -200               0
2.28289                -11.62966       -48.95691         -28.3555       -143.2826             -200               0             -200               0
2.28947                -12.02344       -47.17321        -28.33365       -148.0241             -200               0             -200               0