! TOUCHSTONE file generated by CST MICROWAVE STUDIO
! Date and time: Tue Mar 18 00:02:04 2025
! Project name: oblique.cst
! Parameters = {Tilt=40; Fracture=1; B=10; D=160; F=5; Feed=2.85625; L=100; M=30; R=0.384908; S=1; Theta=180; length=57.125; wave=114.25}
! Header version: 2024
! Port assignment regex: !\s*Touchstone port\s*([0-9]+)\s*=\s*(CST MWS port|CST DES external port|CST DES block port)\s*(.+)\s* \(\"(.*)\"\)(\s*mode\s*([0-9]+))?.*
! Touchstone port assignment:
! Touchstone port 1 = CST MWS port 1 ("")
! Touchstone port 2 = CST MWS port 2 ("")
# GHz S DB R 50
1                     -0.0200981        -9.79349        -68.44988       -163.7942             -200               0             -200               0
1.00662              -0.02095494       -9.882347        -68.29329       -168.2307             -200               0             -200               0
1.01325              -0.02185275       -9.971574        -68.16207        -172.603             -200               0             -200               0
1.01987              -0.02278699       -10.06115        -68.05568       -176.9006             -200               0             -200               0
1.02649              -0.02375238       -10.15108        -67.97358        178.8875             -200               0             -200               0
1.03311              -0.02474196       -10.24135        -67.91521        174.7733             -200               0             -200               0
1.03974              -0.02575005       -10.33197        -67.87995        170.7702             -200               0             -200               0
1.04636              -0.02676918       -10.42295        -67.86707        166.8923             -200               0             -200               0
1.05298              -0.02779427       -10.51432        -67.87566        163.1557             -200               0             -200               0
1.0596                -0.0288189       -10.60611         -67.9046        159.5774             -200               0             -200               0
1.06623              -0.02983858       -10.69835         -67.9524        156.1763             -200               0             -200               0
1.07285              -0.03084805       -10.79109        -68.01717        152.9726             -200               0             -200               0
1.07947              -0.03184442       -10.88438        -68.09645        149.9877             -200               0             -200               0
1.08609              -0.03282474       -10.97826        -68.18706        147.2438             -200               0             -200               0
1.09272              -0.03378846        -11.0728        -68.28496        144.7627             -200               0             -200               0
1.09934               -0.0347349       -11.16805        -68.38512        142.5649             -200               0             -200               0
1.10596              -0.03566548       -11.26407        -68.48134        140.6672             -200               0             -200               0
1.11258              -0.03658266       -11.36093        -68.56626        139.0805             -200               0             -200               0
1.11921              -0.03749039       -11.45867        -68.63145        137.8064             -200               0             -200               0
1.12583              -0.03839185       -11.55734        -68.66767         136.834             -200               0             -200               0
1.13245              -0.03929479         -11.657        -68.66544        136.1367             -200               0             -200               0
1.13907              -0.04020409       -11.75768        -68.61584        135.6702             -200               0             -200               0
1.1457               -0.04112847       -11.85943        -68.51147        135.3737             -200               0             -200               0
1.15232               -0.0420748       -11.96226         -68.3474        135.1723             -200               0             -200               0
1.15894              -0.04305175        -12.0662        -68.12184        134.9838             -200               0             -200               0
1.16556              -0.04406709       -12.17126        -67.83646         134.726             -200               0             -200               0
1.17219              -0.04512898       -12.27745        -67.49608        134.3247             -200               0             -200               0
1.17881              -0.04624579       -12.38474        -67.10792        133.7197             -200               0             -200               0
1.18543              -0.04742504       -12.49315         -66.6807        132.8677             -200               0             -200               0
1.19205              -0.04867249       -12.60264        -66.22365         131.743             -200               0             -200               0
1.19868              -0.04999407       -12.71319        -65.74569        130.3353             -200               0             -200               0
1.2053               -0.05139529       -12.82478        -65.25496        128.6472             -200               0             -200               0
1.21192              -0.05287777       -12.93737        -64.75847        126.6901             -200               0             -200               0
1.21854              -0.05444519       -13.05092        -64.26207        124.4815             -200               0             -200               0
1.22517              -0.05609813        -13.1654        -63.77042        122.0423             -200               0             -200               0
1.23179              -0.05783615       -13.28077        -63.28717         119.395             -200               0             -200               0
1.23841              -0.05965714       -13.39701         -62.8151        116.5622             -200               0             -200               0
1.24503              -0.06155834       -13.51408        -62.35624        113.5658             -200               0             -200               0
1.25166              -0.06353573       -13.63197        -61.91204        110.4265             -200               0             -200               0
1.25828              -0.06558459       -13.75065        -61.48348        107.1637             -200               0             -200               0
1.2649               -0.06769881       -13.87011        -61.07118        103.7951             -200               0             -200               0
1.27152              -0.06987137       -13.99037        -60.67548        100.3372             -200               0             -200               0
1.27815                -0.072096       -14.11142        -60.29648        96.80477             -200               0             -200               0
1.28477              -0.07436496       -14.23328        -59.93414         93.2115             -200               0             -200               0
1.29139              -0.07667209       -14.35599        -59.58827        89.56986             -200               0             -200               0
1.29801              -0.07900949       -14.47958        -59.25857        85.89129             -200               0             -200               0
1.30464              -0.08137212        -14.6041        -58.94469        82.18637             -200               0             -200               0
1.31126              -0.08375281       -14.72962        -58.64617        78.46483             -200               0             -200               0
1.31788              -0.08614892       -14.85619        -58.36252        74.73577             -200               0             -200               0
1.3245               -0.08855632       -14.98388         -58.0932        71.00767             -200               0             -200               0
1.33113              -0.09097317       -15.11278        -57.83761        67.28845             -200               0             -200               0
1.33775              -0.09339805       -15.24297         -57.5951        63.58561             -200               0             -200               0
1.34437               -0.0958334       -15.37453        -57.36499        59.90619             -200               0             -200               0
1.35099              -0.09828095       -15.50756        -57.14652        56.25682             -200               0             -200               0
1.35762               -0.1007449       -15.64213        -56.93891        52.64378             -200               0             -200               0
1.36424               -0.1032306       -15.77834        -56.74128        49.07292             -200               0             -200               0
1.37086               -0.1057457       -15.91626        -56.55273        45.54969             -200               0             -200               0
1.37748               -0.1082988       -16.05596        -56.37227        42.07911             -200               0             -200               0
1.38411                -0.110899       -16.19753        -56.19885        38.66568             -200               0             -200               0
1.39073               -0.1135577       -16.34102        -56.03134        35.31337             -200               0             -200               0
1.39735               -0.1162854       -16.48647        -55.86854        32.02549             -200               0             -200               0
1.40397               -0.1190944       -16.63395        -55.70921        28.80463             -200               0             -200               0
1.4106                -0.1219971       -16.78348        -55.55202        25.65255             -200               0             -200               0
1.41722               -0.1250056       -16.93509         -55.3956        22.57007             -200               0             -200               0
1.42384               -0.1281319       -17.08879        -55.23855        19.55698             -200               0             -200               0
1.43046                -0.131388       -17.24459        -55.07945        16.61194             -200               0             -200               0
1.43709               -0.1347846        -17.4025        -54.91688        13.73242             -200               0             -200               0
1.44371               -0.1383318       -17.56251        -54.74948        10.91461             -200               0             -200               0
1.45033               -0.1420373        -17.7246        -54.57595        8.153478             -200               0             -200               0
1.45695               -0.1459104       -17.88877        -54.39508        5.442745             -200               0             -200               0
1.46358               -0.1499559       -18.05498         -54.2058        2.775003             -200               0             -200               0
1.4702                -0.1541801       -18.22323        -54.00723       0.1418502             -200               0             -200               0
1.47682               -0.1585856        -18.3935        -53.79866       -2.465917             -200               0             -200               0
1.48344               -0.1631746       -18.56577        -53.57962       -5.058072             -200               0             -200               0
1.49007               -0.1679483       -18.74004        -53.34987       -7.644683             -200               0             -200               0
1.49669                -0.172906        -18.9163        -53.10939       -10.23584             -200               0             -200               0
1.50331               -0.1780472       -19.09456        -52.85842       -12.84134             -200               0             -200               0
1.50993               -0.1833691       -19.27485        -52.59739       -15.47047             -200               0             -200               0
1.51656               -0.1888685       -19.45717        -52.32695       -18.13174             -200               0             -200               0
1.52318               -0.1945433       -19.64158        -52.04789       -20.83267             -200               0             -200               0
1.5298                -0.2003906       -19.82812        -51.76115       -23.57971             -200               0             -200               0
1.53642               -0.2064087       -20.01686        -51.46776       -26.37813             -200               0             -200               0
1.54305               -0.2125942       -20.20788        -51.16881       -29.23197             -200               0             -200               0
1.54967               -0.2189473       -20.40127        -50.86541        -32.1441             -200               0             -200               0
1.55629               -0.2254674       -20.59712        -50.55868       -35.11623             -200               0             -200               0
1.56291               -0.2321585       -20.79554        -50.24972       -38.14904             -200               0             -200               0
1.56954               -0.2390224       -20.99665        -49.93955       -41.24222             -200               0             -200               0
1.57616               -0.2460665       -21.20059        -49.62917       -44.39468             -200               0             -200               0
1.58278               -0.2532979       -21.40748        -49.31948       -47.60455             -200               0             -200               0
1.5894                -0.2607274       -21.61746        -49.01128       -50.86941             -200               0             -200               0
1.59603               -0.2683693       -21.83066        -48.70533       -54.18633             -200               0             -200               0
1.60265               -0.2762364       -22.04722        -48.40225       -57.55199             -200               0             -200               0
1.60927               -0.2843487       -22.26727        -48.10261        -60.9628             -200               0             -200               0
1.61589               -0.2927244       -22.49093        -47.80687       -64.41493             -200               0             -200               0
1.62252               -0.3013871       -22.71833        -47.51542       -67.90442             -200               0             -200               0
1.62914               -0.3103615       -22.94957        -47.22857       -71.42724             -200               0             -200               0
1.63576               -0.3196742       -23.18475        -46.94653       -74.97932             -200               0             -200               0
1.64238               -0.3293505       -23.42395        -46.66947        -78.5566             -200               0             -200               0
1.64901               -0.3394221       -23.66725        -46.39747        -82.1551             -200               0             -200               0
1.65563               -0.3499154        -23.9147        -46.13056       -85.77088             -200               0             -200               0
1.66225               -0.3608629       -24.16635         -45.8687       -89.40015             -200               0             -200               0
1.66887               -0.3722945       -24.42221         -45.6118       -93.03924             -200               0             -200               0
1.6755                -0.3842393       -24.68231        -45.35971       -96.68465             -200               0             -200               0
1.68212               -0.3967284       -24.94664        -45.11225        -100.333             -200               0             -200               0
1.68874               -0.4097892       -25.21519        -44.86915       -103.9813             -200               0             -200               0
1.69536               -0.4234493       -25.48794        -44.63015       -107.6265             -200               0             -200               0
1.70199               -0.4377352       -25.76486         -44.3949        -111.266             -200               0             -200               0
1.70861               -0.4526712        -26.0459        -44.16305       -114.8973             -200               0             -200               0
1.71523               -0.4682809       -26.33103        -43.93419       -118.5184             -200               0             -200               0
1.72185               -0.4845838        -26.6202        -43.70788       -122.1274             -200               0             -200               0
1.72848               -0.5016004       -26.91338        -43.48366       -125.7228             -200               0             -200               0
1.7351                -0.5193474       -27.21051        -43.26105       -129.3035             -200               0             -200               0
1.74172               -0.5378401       -27.51157        -43.03955       -132.8687             -200               0             -200               0
1.74834               -0.5570945       -27.81655        -42.81863       -136.4179             -200               0             -200               0
1.75497               -0.5771233       -28.12542        -42.59777       -139.9512             -200               0             -200               0
1.76159               -0.5979386        -28.4382        -42.37644       -143.4689             -200               0             -200               0
1.76821               -0.6195526        -28.7549        -42.15413       -146.9718             -200               0             -200               0
1.77483               -0.6419763       -29.07556        -41.93032       -150.4612             -200               0             -200               0
1.78146               -0.6652232       -29.40024        -41.70453       -153.9386             -200               0             -200               0
1.78808               -0.6893067       -29.72902        -41.47631       -157.4061             -200               0             -200               0
1.7947                -0.7142407       -30.06198        -41.24523       -160.8661             -200               0             -200               0
1.80132               -0.7400431       -30.39924        -41.01092       -164.3213             -200               0             -200               0
1.80795               -0.7667321       -30.74094        -40.77307       -167.7746             -200               0             -200               0
1.81457               -0.7943312       -31.08723        -40.53139       -171.2295             -200               0             -200               0
1.82119               -0.8228663       -31.43827        -40.28569       -174.6893             -200               0             -200               0
1.82781               -0.8523665       -31.79424        -40.03582       -178.1576             -200               0             -200               0
1.83444                -0.882869       -32.15534        -39.78173        178.3618             -200               0             -200               0
1.84106               -0.9144122       -32.52176        -39.52339        174.8651             -200               0             -200               0
1.84768               -0.9470411       -32.89371        -39.26088        171.3489             -200               0             -200               0
1.8543                -0.9808055       -33.27137        -38.99433        167.8094             -200               0             -200               0
1.86093                -1.015763       -33.65497        -38.72392        164.2432             -200               0             -200               0
1.86755                -1.051975       -34.04468        -38.44989        160.6471             -200               0             -200               0
1.87417                -1.089509       -34.44068        -38.17255        157.0182             -200               0             -200               0
1.88079                -1.128439       -34.84314        -37.89222        153.3537             -200               0             -200               0
1.88742                -1.168846        -35.2522        -37.60929        149.6512             -200               0             -200               0
1.89404                -1.210811       -35.66799        -37.32415        145.9087             -200               0             -200               0
1.90066                -1.254428       -36.09059        -37.03723        142.1244             -200               0             -200               0
1.90728                 -1.29979       -36.52007        -36.74896        138.2969             -200               0             -200               0
1.91391                -1.346996       -36.95645        -36.45979         134.425             -200               0             -200               0
1.92053                -1.396151       -37.39975        -36.17016        130.5081             -200               0             -200               0
1.92715                -1.447362        -37.8499        -35.88052        126.5455             -200               0             -200               0
1.93377                -1.500739       -38.30682        -35.59131        122.5372             -200               0             -200               0
1.9404                 -1.556397       -38.77039        -35.30293         118.483             -200               0             -200               0
1.94702                 -1.61445       -39.24045         -35.0158        114.3833             -200               0             -200               0
1.95364                -1.675017        -39.7168         -34.7303        110.2385             -200               0             -200               0
1.96026                -1.738217       -40.19917        -34.44681        106.0493             -200               0             -200               0
1.96689                 -1.80417       -40.68728        -34.16567        101.8165             -200               0             -200               0
1.97351                -1.872998       -41.18081         -33.8872        97.54096             -200               0             -200               0
1.98013                -1.944824       -41.67939        -33.61172        93.22378             -200               0             -200               0
1.98675                -2.019767        -42.1826        -33.33949        88.86608             -200               0             -200               0
1.99338                -2.097954       -42.69002        -33.07078        84.46907             -200               0             -200               0
2                      -2.179505       -43.20116        -32.80582        80.03401             -200               0             -200               0
2.00662                -2.264543       -43.71551        -32.54483        75.56221             -200               0             -200               0
2.01325                -2.353194       -44.23253        -32.28801        71.05502             -200               0             -200               0
2.01987                 -2.44558       -44.75165        -32.03553        66.51378             -200               0             -200               0
2.02649                -2.541827       -45.27228        -31.78756        61.93986             -200               0             -200               0
2.03311                -2.642061       -45.79378        -31.54424        57.33463             -200               0             -200               0
2.03974                -2.746411        -46.3155         -31.3057        52.69943             -200               0             -200               0
2.04636                -2.855006       -46.83675        -31.07205        48.03562             -200               0             -200               0
2.05298                -2.967979       -47.35682        -30.84339        43.34453             -200               0             -200               0
2.0596                 -3.085469       -47.87497        -30.61982        38.62746             -200               0             -200               0
2.06623                -3.207616       -48.39043        -30.40142        33.88568             -200               0             -200               0
2.07285                -3.334565       -48.90238        -30.18824        29.12047             -200               0             -200               0
2.07947                -3.466472       -49.40998        -29.98035        24.33304             -200               0             -200               0
2.08609                -3.603495       -49.91234         -29.7778         19.5246             -200               0             -200               0
2.09272                -3.745801        -50.4085        -29.58063         14.6963             -200               0             -200               0
2.09934                 -3.89357       -50.89747        -29.38888        9.849297             -200               0             -200               0
2.10596                -4.046986       -51.37818        -29.20257        4.984691             -200               0             -200               0
2.11258                -4.206251       -51.84948        -29.02174       0.1035588             -200               0             -200               0
2.11921                -4.371574       -52.31012         -28.8464       -4.793047             -200               0             -200               0
2.12583                -4.543182       -52.75875        -28.67656       -9.704108             -200               0             -200               0
2.13245                -4.721312       -53.19392        -28.51223       -14.62863             -200               0             -200               0
2.13907                 -4.90622       -53.61401        -28.35343       -19.56565             -200               0             -200               0
2.1457                 -5.098178       -54.01723        -28.20014       -24.51422             -200               0             -200               0
2.15232                -5.297474       -54.40162        -28.05239       -29.47344             -200               0             -200               0
2.15894                -5.504416       -54.76498        -27.91015        -34.4424             -200               0             -200               0
2.16556                 -5.71933        -55.1049        -27.77343       -39.42023             -200               0             -200               0
2.17219                -5.942559        -55.4186        -27.64222       -44.40609             -200               0             -200               0
2.17881                -6.174469       -55.70305        -27.51651       -49.39914             -200               0             -200               0
2.18543                -6.415439       -55.95478        -27.39629       -54.39858             -200               0             -200               0
2.19205                -6.665872        -56.1699        -27.28155       -59.40359             -200               0             -200               0
2.19868                -6.926181         -56.344        -27.17227       -64.41341             -200               0             -200               0
2.2053                 -7.196796        -56.4721        -27.06845       -69.42727             -200               0             -200               0
2.21192                -7.478152       -56.54853        -26.97006       -74.44442             -200               0             -200               0
2.21854                 -7.77069       -56.56687        -26.87709        -79.4641             -200               0             -200               0
2.22517                -8.074843       -56.51978        -26.78953        -84.4856             -200               0             -200               0
2.23179                -8.391029       -56.39894        -26.70734       -89.50819             -200               0             -200               0
2.23841                -8.719631        -56.1948        -26.63053       -94.53117             -200               0             -200               0
2.24503                 -9.06098       -55.89654        -26.55905       -99.55381             -200               0             -200               0
2.25166                -9.415318       -55.49172         -26.4929       -104.5754             -200               0             -200               0
2.25828                -9.782767       -54.96621        -26.43205       -109.5953             -200               0             -200               0
2.2649                 -10.16327       -54.30395        -26.37649       -114.6128             -200               0             -200               0
2.27152                -10.55652       -53.48665        -26.32617       -119.6272             -200               0             -200               0
2.27815                -10.96187       -52.49374        -26.28109       -124.6379             -200               0             -200               0
2.28477                -11.37823       -51.30216        -26.24121        -129.644             -200               0             -200               0
2.29139                -11.80386        -49.8865        -26.20652       -134.6451             -200               0             -200               0
2.29801                -12.23624       -48.21918        -26.17697       -139.6403             -200               0             -200               0