! TOUCHSTONE file generated by CST MICROWAVE STUDIO
! Date and time: Tue Mar 18 00:02:54 2025
! Project name: oblique.cst
! Parameters = {Tilt=40; Fracture=1; B=12.5; D=160; F=15; Feed=2.85625; L=100; M=30; R=0.384908; S=1; Theta=180; length=57.125; wave=114.25}
! Header version: 2024
! Port assignment regex: !\s*Touchstone port\s*([0-9]+)\s*=\s*(CST MWS port|CST DES external port|CST DES block port)\s*(.+)\s* \(\"(.*)\"\)(\s*mode\s*([0-9]+))?.*
! Touchstone port assignment:
! Touchstone port 1 = CST MWS port 1 ("")
! Touchstone port 2 = CST MWS port 2 ("")
# GHz S DB R 50
1                    -0.02213503        -9.78109        -65.88485        173.0004             -200               0             -200               0
1.0066               -0.02278611       -9.867079        -65.94892        166.9662             -200               0             -200               0
1.0132               -0.02341475       -9.953685        -66.05186        161.0238             -200               0             -200               0
1.0198               -0.02402119       -10.04096        -66.19586        155.1804             -200               0             -200               0
1.0264                -0.0246088       -10.12896        -66.38356        149.4457             -200               0             -200               0
1.033                -0.02518145       -10.21774         -66.6182        143.8329             -200               0             -200               0
1.0396               -0.02574521       -10.30734        -66.90369        138.3597             -200               0             -200               0
1.0462               -0.02630476       -10.39781        -67.24483        133.0495             -200               0             -200               0
1.05281               -0.0268679       -10.48917        -67.64741        127.9341             -200               0             -200               0
1.05941               -0.0274412       -10.58146        -68.11851         123.057             -200               0             -200               0
1.06601               -0.0280329        -10.6747        -68.66677        118.4784             -200               0             -200               0
1.07261              -0.02865145        -10.7689         -69.3026         114.284             -200               0             -200               0
1.07921              -0.02930399       -10.86406        -70.03839        110.5982             -200               0             -200               0
1.08581              -0.02999894       -10.96019        -70.88812        107.6065             -200               0             -200               0
1.09241              -0.03074438       -11.05728        -71.86563        105.5921             -200               0             -200               0
1.09901              -0.03154651        -11.1553        -72.97867        104.9959             -200               0             -200               0
1.10561              -0.03241187       -11.25423        -74.21214        106.4988             -200               0             -200               0
1.11221                -0.033346       -11.35404        -75.48535        111.0685             -200               0             -200               0
1.11881              -0.03435261        -11.4547        -76.57029        119.6759             -200               0             -200               0
1.12541              -0.03543545       -11.55617        -77.05098        132.0605             -200               0             -200               0
1.13201              -0.03659582       -11.65841        -76.59457        145.2948             -200               0             -200               0
1.13861              -0.03783504       -11.76138          -75.359         155.669             -200               0             -200               0
1.14521              -0.03915179       -11.86504        -73.78316        161.9024             -200               0             -200               0
1.15182              -0.04054423       -11.96935        -72.17702        164.6811             -200               0             -200               0
1.15842              -0.04200933       -12.07428        -70.66947        165.0479             -200               0             -200               0
1.16502              -0.04354234        -12.1798        -69.29477        163.8032             -200               0             -200               0
1.17162               -0.0451389       -12.28589        -68.05122        161.4755             -200               0             -200               0
1.17822              -0.04679168       -12.39253        -66.92614        158.4046             -200               0             -200               0
1.18482              -0.04849475       -12.49972        -65.90503        154.8113             -200               0             -200               0
1.19142              -0.05024032       -12.60745        -64.97454        150.8429             -200               0             -200               0
1.19802               -0.0520211       -12.71574        -64.12319        146.6004             -200               0             -200               0
1.20462              -0.05383023       -12.82461        -63.34142        142.1548             -200               0             -200               0
1.21122              -0.05565932       -12.93409        -62.62128        137.5578             -200               0             -200               0
1.21782               -0.0575022       -13.04421        -61.95616        132.8477             -200               0             -200               0
1.22442              -0.05935297       -13.15504        -61.34059        128.0535             -200               0             -200               0
1.23102              -0.06120635       -13.26661        -60.76998        123.1979             -200               0             -200               0
1.23762              -0.06305734         -13.379        -60.24044        118.2991             -200               0             -200               0
1.24422              -0.06490489       -13.49228         -59.7487        113.3717             -200               0             -200               0
1.25083              -0.06674555       -13.60652        -59.29196        108.4278             -200               0             -200               0
1.25743              -0.06858047       -13.72179        -58.86781        103.4781             -200               0             -200               0
1.26403              -0.07041074       -13.83818        -58.47417         98.5314             -200               0             -200               0
1.27063              -0.07223991       -13.95575        -58.10923        93.59594             -200               0             -200               0
1.27723              -0.07407114        -14.0746        -57.77139        88.67905             -200               0             -200               0
1.28383              -0.07591179       -14.19478        -57.45923        83.78761             -200               0             -200               0
1.29043              -0.07776939       -14.31637         -57.1715        78.92817             -200               0             -200               0
1.29703              -0.07965169       -14.43942        -56.90705        74.10705             -200               0             -200               0
1.30363              -0.08156869         -14.564        -56.66484        69.33052             -200               0             -200               0
1.31023              -0.08353084       -14.69015         -56.4439        64.60486             -200               0             -200               0
1.31683               -0.0855488        -14.8179        -56.24331        59.93639             -200               0             -200               0
1.32343              -0.08763429       -14.94728        -56.06216        55.33166             -200               0             -200               0
1.33003              -0.08979765        -15.0783        -55.89959        50.79734             -200               0             -200               0
1.33663              -0.09205188       -15.21097        -55.75469         46.3404             -200               0             -200               0
1.34323              -0.09440703       -15.34529        -55.62654        41.96807             -200               0             -200               0
1.34984               -0.0968733       -15.48125        -55.51415        37.68784             -200               0             -200               0
1.35644               -0.0994599       -15.61882        -55.41644        33.50749             -200               0             -200               0
1.36304                -0.102175       -15.75798        -55.33223          29.435             -200               0             -200               0
1.36964               -0.1050252       -15.89869        -55.26021        25.47851             -200               0             -200               0
1.37624                -0.108016       -16.04092        -55.19887         21.6462             -200               0             -200               0
1.38284               -0.1111522       -16.18463        -55.14652        17.94608             -200               0             -200               0
1.38944                -0.114433       -16.32978        -55.10124         14.3858             -200               0             -200               0
1.39604               -0.1178623       -16.47633        -55.06085        10.97231             -200               0             -200               0
1.40264               -0.1214369       -16.62425         -55.0229        7.711469             -200               0             -200               0
1.40924               -0.1251564       -16.77349        -54.98466        4.607597             -200               0             -200               0
1.41584                -0.129015       -16.92406        -54.94315        1.662897             -200               0             -200               0
1.42244                -0.133009       -17.07593        -54.89513       -1.123106             -200               0             -200               0
1.42904               -0.1371311       -17.22909        -54.83721       -3.754177             -200               0             -200               0
1.43564                -0.141375       -17.38356        -54.76593         -6.2379             -200               0             -200               0
1.44224               -0.1457335       -17.53935        -54.67789       -8.586069             -200               0             -200               0
1.44884               -0.1501988        -17.6965        -54.56988       -10.81486             -200               0             -200               0
1.45545               -0.1547634       -17.85505        -54.43909        -12.9447             -200               0             -200               0
1.46205               -0.1594213       -18.01507        -54.28328       -14.99971             -200               0             -200               0
1.46865               -0.1641642       -18.17661        -54.10088        -17.0069             -200               0             -200               0
1.47525               -0.1689899       -18.33978        -53.89117       -18.99491             -200               0             -200               0
1.48185               -0.1738927       -18.50466        -53.65426        -20.9927             -200               0             -200               0
1.48845               -0.1788705       -18.67136        -53.39112       -23.02806             -200               0             -200               0
1.49505               -0.1839243       -18.83999        -53.10344       -25.12639             -200               0             -200               0
1.50165                -0.189055       -19.01067        -52.79356       -27.30964             -200               0             -200               0
1.50825               -0.1942672       -19.18354        -52.46427       -29.59568             -200               0             -200               0
1.51485               -0.1995668        -19.3587        -52.11862       -31.99796             -200               0             -200               0
1.52145               -0.2049627        -19.5363        -51.75978       -34.52562             -200               0             -200               0
1.52805               -0.2104664       -19.71645        -51.39088       -37.18372             -200               0             -200               0
1.53465               -0.2160908       -19.89927        -51.01492       -39.97382             -200               0             -200               0
1.54125               -0.2218511       -20.08488        -50.63466       -42.89448             -200               0             -200               0
1.54785               -0.2277639       -20.27339         -50.2526       -45.94192             -200               0             -200               0
1.55446               -0.2338499       -20.46487        -49.87095       -49.11054             -200               0             -200               0
1.56106               -0.2401279       -20.65942         -49.4916       -52.39348             -200               0             -200               0
1.56766                -0.246621       -20.85711        -49.11618       -55.78299             -200               0             -200               0
1.57426               -0.2533508       -21.05799        -48.74604       -59.27083             -200               0             -200               0
1.58086                -0.260339       -21.26209        -48.38228       -62.84851             -200               0             -200               0
1.58746               -0.2676101       -21.46944        -48.02578       -66.50753             -200               0             -200               0
1.59406               -0.2751853       -21.68006        -47.67725       -70.23949             -200               0             -200               0
1.60066               -0.2830871       -21.89393        -47.33722       -74.03622             -200               0             -200               0
1.60726               -0.2913355       -22.11104        -47.00605       -77.88985             -200               0             -200               0
1.61386               -0.2999498       -22.33137        -46.68402       -81.79284             -200               0             -200               0
1.62046               -0.3089478       -22.55488        -46.37126       -85.73799             -200               0             -200               0
1.62706               -0.3183465       -22.78152        -46.06783       -89.71849             -200               0             -200               0
1.63366                -0.328158       -23.01125        -45.77371       -93.72786             -200               0             -200               0
1.64026               -0.3383941       -23.24401         -45.4888       -97.75998             -200               0             -200               0
1.64686                -0.349064       -23.47976        -45.21294       -101.8091             -200               0             -200               0
1.65347               -0.3601755       -23.71844         -44.9459       -105.8697             -200               0             -200               0
1.66007               -0.3717327       -23.96003        -44.68743       -109.9367             -200               0             -200               0
1.66667               -0.3837393       -24.20448        -44.43721       -114.0053             -200               0             -200               0
1.67327               -0.3961941       -24.45178        -44.19488       -118.0709             -200               0             -200               0
1.67987               -0.4090993       -24.70192        -43.96003       -122.1293             -200               0             -200               0
1.68647               -0.4224516       -24.95492        -43.73224       -126.1764             -200               0             -200               0
1.69307               -0.4362478        -25.2108        -43.51101       -130.2087             -200               0             -200               0
1.69967               -0.4504849       -25.46961        -43.29583       -134.2228             -200               0             -200               0
1.70627                -0.465161       -25.73142        -43.08616       -138.2156             -200               0             -200               0
1.71287               -0.4802721       -25.99633        -42.88139       -142.1843             -200               0             -200               0
1.71947               -0.4958176       -26.26444        -42.68092       -146.1267             -200               0             -200               0
1.72607               -0.5117969       -26.53589        -42.48408       -150.0407             -200               0             -200               0
1.73267               -0.5282119       -26.81085         -42.2902       -153.9247             -200               0             -200               0
1.73927               -0.5450676       -27.08947        -42.09857       -157.7776             -200               0             -200               0
1.74587               -0.5623702       -27.37196        -41.90847       -161.5985             -200               0             -200               0
1.75248                -0.580131       -27.65852        -41.71916       -165.3874             -200               0             -200               0
1.75908                -0.598365       -27.94937        -41.52989       -169.1445             -200               0             -200               0
1.76568               -0.6170894       -28.24474        -41.33992       -172.8706             -200               0             -200               0
1.77228               -0.6363279       -28.54487        -41.14851        -176.567             -200               0             -200               0
1.77888               -0.6561081          -28.85        -40.95496        179.7643             -200               0             -200               0
1.78548               -0.6764609       -29.16037        -40.75857        176.1208             -200               0             -200               0
1.79208               -0.6974212       -29.47623        -40.55872        172.4995             -200               0             -200               0
1.79868               -0.7190316        -29.7978        -40.35481        168.8969             -200               0             -200               0
1.80528               -0.7413356       -30.12531        -40.14633        165.3091             -200               0             -200               0
1.81188               -0.7643823       -30.45897        -39.93284        161.7317             -200               0             -200               0
1.81848               -0.7882261       -30.79897        -39.71397        158.1598             -200               0             -200               0
1.82508               -0.8129201        -31.1455        -39.48946        154.5887             -200               0             -200               0
1.83168               -0.8385264       -31.49871        -39.25914        151.0131             -200               0             -200               0
1.83828                -0.865106       -31.85875        -39.02292        147.4278             -200               0             -200               0
1.84488               -0.8927242       -32.22573        -38.78085        143.8277             -200               0             -200               0
1.85149               -0.9214476       -32.59976        -38.53303        140.2075             -200               0             -200               0
1.85809               -0.9513434        -32.9809        -38.27967        136.5626             -200               0             -200               0
1.86469               -0.9824808       -33.36922        -38.02108        132.8883             -200               0             -200               0
1.87129                -1.014931       -33.76474        -37.75761        129.1802             -200               0             -200               0
1.87789                -1.048763        -34.1675        -37.48971        125.4347             -200               0             -200               0
1.88449                -1.084049        -34.5775        -37.21785        121.6483             -200               0             -200               0
1.89109                -1.120859       -34.99472        -36.94256        117.8179             -200               0             -200               0
1.89769                -1.159264       -35.41913         -36.6644        113.9413             -200               0             -200               0
1.90429                -1.199335       -35.85073        -36.38394        110.0163             -200               0             -200               0
1.91089                -1.241141       -36.28946        -36.10176        106.0415             -200               0             -200               0
1.91749                -1.284755        -36.7353        -35.81844        102.0157             -200               0             -200               0
1.92409                -1.330247       -37.18821        -35.53457        97.93833             -200               0             -200               0
1.93069                -1.377689       -37.64816        -35.25069        93.80904             -200               0             -200               0
1.93729                -1.427154       -38.11513        -34.96736         89.6279             -200               0             -200               0
1.94389                -1.478718       -38.58909        -34.68507        85.39526             -200               0             -200               0
1.9505                 -1.532458       -39.07005        -34.40433        81.11174             -200               0             -200               0
1.9571                 -1.588452         -39.558        -34.12559        76.77821             -200               0             -200               0
1.9637                 -1.646788       -40.05298        -33.84927        72.39571             -200               0             -200               0
1.9703                 -1.707553         -40.555        -33.57576        67.96545             -200               0             -200               0
1.9769                  -1.77084       -41.06412        -33.30544        63.48876             -200               0             -200               0
1.9835                 -1.836752       -41.58039        -33.03863        58.96709             -200               0             -200               0
1.9901                 -1.905397       -42.10387        -32.77564        54.40195             -200               0             -200               0
1.9967                 -1.976891       -42.63462        -32.51673         49.7949             -200               0             -200               0
2.0033                  -2.05136       -43.17271        -32.26216        45.14757             -200               0             -200               0
2.0099                 -2.128941       -43.71822        -32.01215        40.46157             -200               0             -200               0
2.0165                 -2.209782       -44.27119        -31.76689        35.73853             -200               0             -200               0
2.0231                 -2.294042       -44.83169        -31.52656        30.98007             -200               0             -200               0
2.0297                 -2.381896       -45.39972        -31.29132        26.18781             -200               0             -200               0
2.0363                 -2.473529       -45.97529         -31.0613        21.36333             -200               0             -200               0
2.0429                 -2.569143       -46.55834        -30.83662        16.50818             -200               0             -200               0
2.0495                 -2.668955        -47.1488        -30.61738         11.6239             -200               0             -200               0
2.05611                -2.773199       -47.74652        -30.40368        6.711955             -200               0             -200               0
2.06271                -2.882124       -48.35129        -30.19559        1.773797             -200               0             -200               0
2.06931                -2.995998       -48.96284        -29.99319       -3.189173             -200               0             -200               0
2.07591                -3.115106       -49.58078        -29.79651       -8.175594             -200               0             -200               0
2.08251                -3.239751       -50.20464        -29.60562       -13.18415             -200               0             -200               0
2.08911                -3.370258       -50.83386        -29.42055       -18.21357             -200               0             -200               0
2.09571                -3.506966       -51.46772        -29.24133       -23.26262             -200               0             -200               0
2.10231                 -3.65024       -52.10538        -29.06799       -28.33011             -200               0             -200               0
2.10891                -3.800464       -52.74584        -28.90055       -33.41489             -200               0             -200               0
2.11551                -3.958042       -53.38792        -28.73902       -38.51585             -200               0             -200               0
2.12211                -4.123403       -54.03029        -28.58342       -43.63192             -200               0             -200               0
2.12871                -4.296996       -54.67136        -28.43374       -48.76205             -200               0             -200               0
2.13531                  -4.4793       -55.30936           -28.29       -53.90524             -200               0             -200               0
2.14191                -4.670813       -55.94221         -28.1522       -59.06053             -200               0             -200               0
2.14851                -4.872067       -56.56759        -28.02033       -64.22697             -200               0             -200               0
2.15512                -5.083617       -57.18284        -27.89439       -69.40364             -200               0             -200               0
2.16172                -5.306053       -57.78494        -27.77438       -74.58966             -200               0             -200               0
2.16832                -5.539995       -58.37047        -27.66029       -79.78417             -200               0             -200               0
2.17492                  -5.7861       -58.93554        -27.55211       -84.98633             -200               0             -200               0
2.18152                -6.045058       -59.47575        -27.44984       -90.19532             -200               0             -200               0
2.18812                -6.317603       -59.98607        -27.35346       -95.41034             -200               0             -200               0
2.19472                -6.604508       -60.46077        -27.26297       -100.6306             -200               0             -200               0
2.20132                -6.906588       -60.89332        -27.17835       -105.8554             -200               0             -200               0
2.20792                -7.224704        -61.2762         -27.0996       -111.0839             -200               0             -200               0
2.21452                -7.559759       -61.60077        -27.02671       -116.3154             -200               0             -200               0
2.22112                -7.912696       -61.85703        -26.95966       -121.5492             -200               0             -200               0
2.22772                -8.284495        -62.0334        -26.89845       -126.7845             -200               0             -200               0
2.23432                -8.676157       -62.11633        -26.84307       -132.0207             -200               0             -200               0
2.24092                 -9.08869       -62.08997         -26.7935        -137.257             -200               0             -200               0
2.24752                -9.523072       -61.93567        -26.74973       -142.4928             -200               0             -200               0
2.25413                -9.980203       -61.63139        -26.71176       -147.7274             -200               0             -200               0
2.26073                -10.46083         -61.151        -26.67958         -152.96             -200               0             -200               0
2.26733                -10.96542       -60.46348        -26.65317         -158.19             -200               0             -200               0
2.27393                -11.49401       -59.53198        -26.63252       -163.4167             -200               0             -200               0
2.28053                -12.04588       -58.31287        -26.61764       -168.6393             -200               0             -200               0
2.28713                -12.61925       -56.75491         -26.6085       -173.8573             -200               0             -200               0
2.29373                -13.21066       -54.79886         -26.6051       -179.0698             -200               0             -200               0