! TOUCHSTONE file generated by CST MICROWAVE STUDIO
! Date and time: Tue Mar 18 00:00:46 2025
! Project name: oblique.cst
! Parameters = {Tilt=30; Fracture=1; B=10; D=160; F=5; Feed=2.85625; L=100; M=50; R=0.384908; S=1; Theta=270; length=57.125; wave=114.25}
! Header version: 2024
! Port assignment regex: !\s*Touchstone port\s*([0-9]+)\s*=\s*(CST MWS port|CST DES external port|CST DES block port)\s*(.+)\s* \(\"(.*)\"\)(\s*mode\s*([0-9]+))?.*
! Touchstone port assignment:
! Touchstone port 1 = CST MWS port 1 ("")
! Touchstone port 2 = CST MWS port 2 ("")
# GHz S DB R 50
1                    -0.02175245       -9.788209        -67.76617        172.8544             -200               0             -200               0
1.00658              -0.02245482       -9.875064        -67.69646        167.7712             -200               0             -200               0
1.01316              -0.02316023       -9.962535         -67.6545        162.7827             -200               0             -200               0
1.01974              -0.02387058       -10.05065        -67.64023        157.8984             -200               0             -200               0
1.02632              -0.02458846       -10.13945        -67.65359        153.1296             -200               0             -200               0
1.03289              -0.02531738       -10.22894        -67.69458        148.4891             -200               0             -200               0
1.03947              -0.02606054       -10.31916        -67.76315        143.9923             -200               0             -200               0
1.04605              -0.02682219       -10.41012        -67.85915        139.6569             -200               0             -200               0
1.05263              -0.02760613       -10.50183         -67.9823        135.5037             -200               0             -200               0
1.05921              -0.02841695       -10.59431        -68.13202        131.5569             -200               0             -200               0
1.06579              -0.02925908       -10.68757        -68.30733        127.8444             -200               0             -200               0
1.07237              -0.03013724        -10.7816        -68.50662        124.3985             -200               0             -200               0
1.07895              -0.03105524       -10.87641        -68.72741        121.2554             -200               0             -200               0
1.08553              -0.03201636         -10.972        -68.96597        118.4557             -200               0             -200               0
1.09211              -0.03302512       -11.06834         -69.2169        116.0427             -200               0             -200               0
1.09868              -0.03408453       -11.16544        -69.47265        114.0602             -200               0             -200               0
1.10526              -0.03519775       -11.26327        -69.72297        112.5487             -200               0             -200               0
1.11184              -0.03636582       -11.36183        -69.95454        111.5382             -200               0             -200               0
1.11842              -0.03759049       -11.46109          -70.151        111.0389             -200               0             -200               0
1.125                -0.03887336       -11.56103        -70.29364        111.0305             -200               0             -200               0
1.13158              -0.04021306       -11.66165        -70.36314        111.4514             -200               0             -200               0
1.13816              -0.04161024       -11.76291        -70.34231        112.1939             -200               0             -200               0
1.14474              -0.04306384       -11.86481        -70.21934        113.1099             -200               0             -200               0
1.15132              -0.04457083       -11.96733        -69.99045        114.0285             -200               0             -200               0
1.15789              -0.04612895       -12.07046        -69.66081         114.781             -200               0             -200               0
1.16447              -0.04773494        -12.1742        -69.24323        115.2257             -200               0             -200               0
1.17105              -0.04938675       -12.27854        -68.75531        115.2635             -200               0             -200               0
1.17763              -0.05107978       -12.38348        -68.21626        114.8413             -200               0             -200               0
1.18421              -0.05281015       -12.48904        -67.64425        113.9452             -200               0             -200               0
1.19079              -0.05457387       -12.59522         -67.0549        112.5907             -200               0             -200               0
1.19737               -0.0563672       -12.70204        -66.46073        110.8107             -200               0             -200               0
1.20395              -0.05818581       -12.80952        -65.87125        108.6474             -200               0             -200               0
1.21053              -0.06002711        -12.9177        -65.29332        106.1457             -200               0             -200               0
1.21711              -0.06188677        -13.0266        -64.73175        103.3496             -200               0             -200               0
1.22368              -0.06376357       -13.13626        -64.18972        100.2998             -200               0             -200               0
1.23026              -0.06565329       -13.24672        -63.66924         97.0332             -200               0             -200               0
1.23684              -0.06755601       -13.35803        -63.17145        93.58258             -200               0             -200               0
1.24342              -0.06947034       -13.47022        -62.69689        89.97668             -200               0             -200               0
1.25                 -0.07139704       -13.58335        -62.24569        86.24066             -200               0             -200               0
1.25658              -0.07333585       -13.69747        -61.81767        82.39654             -200               0             -200               0
1.26316              -0.07528892       -13.81262        -61.41249        78.46364             -200               0             -200               0
1.26974              -0.07725895       -13.92886        -61.02967        74.45895             -200               0             -200               0
1.27632              -0.07924818       -14.04622        -60.66864        70.39754             -200               0             -200               0
1.28289              -0.08126098       -14.16475        -60.32881        66.29287             -200               0             -200               0
1.28947              -0.08330068        -14.2845        -60.00956        62.15709             -200               0             -200               0
1.29605              -0.08537394       -14.40551        -59.71023        58.00123             -200               0             -200               0
1.30263              -0.08748381        -14.5278        -59.43019        53.83544             -200               0             -200               0
1.30921              -0.08963782        -14.6514         -59.1688        49.66917             -200               0             -200               0
1.31579              -0.09184125       -14.77635        -58.92538        45.51129             -200               0             -200               0
1.32237              -0.09409771       -14.90266        -58.69929        41.37022             -200               0             -200               0
1.32895              -0.09641597       -15.03036        -58.48985        37.25403             -200               0             -200               0
1.33553               -0.0988006       -15.15944        -58.29636        33.17053             -200               0             -200               0
1.34211               -0.1012558       -15.28994         -58.1181        29.12732             -200               0             -200               0
1.34868               -0.1037862       -15.42185        -57.95429        25.13187             -200               0             -200               0
1.35526               -0.1063976       -15.55516        -57.80413        21.19151             -200               0             -200               0
1.36184               -0.1090927        -15.6899        -57.66673        17.31345             -200               0             -200               0
1.36842               -0.1118754       -15.82605        -57.54112        13.50477             -200               0             -200               0
1.375                 -0.1147477       -15.96362        -57.42626        9.772417             -200               0             -200               0
1.38158                -0.117712       -16.10261        -57.32098        6.123084             -200               0             -200               0
1.38816               -0.1207677       -16.24302        -57.22399        2.563171             -200               0             -200               0
1.39474               -0.1239161       -16.38485        -57.13388      -0.9013692             -200               0             -200               0
1.40132                -0.127158       -16.52812        -57.04909        -4.26518             -200               0             -200               0
1.40789               -0.1304926       -16.67284        -56.96788       -7.523698             -200               0             -200               0
1.41447               -0.1339165       -16.81902         -56.8884       -10.67339             -200               0             -200               0
1.42105               -0.1374313       -16.96668        -56.80862       -13.71202             -200               0             -200               0
1.42763               -0.1410327       -17.11586         -56.7264       -16.63891             -200               0             -200               0
1.43421               -0.1447216       -17.26659         -56.6395       -19.45525             -200               0             -200               0
1.44079               -0.1484956        -17.4189        -56.54561       -22.16436             -200               0             -200               0
1.44737               -0.1523525       -17.57285        -56.44244        -24.7719             -200               0             -200               0
1.45395               -0.1562928       -17.72849        -56.32775       -27.28602             -200               0             -200               0
1.46053               -0.1603156       -17.88588        -56.19946       -29.71738             -200               0             -200               0
1.46711               -0.1644217       -18.04508        -56.05575       -32.07904             -200               0             -200               0
1.47368                -0.168611       -18.20617        -55.89508       -34.38616             -200               0             -200               0
1.48026               -0.1728868       -18.36921        -55.71633       -36.65563             -200               0             -200               0
1.48684               -0.1772524       -18.53429        -55.51882       -38.90542             -200               0             -200               0
1.49342               -0.1817113       -18.70148        -55.30238         -41.154             -200               0             -200               0
1.5                   -0.1862691       -18.87087        -55.06728       -43.41957             -200               0             -200               0
1.50658               -0.1909338       -19.04253        -54.81429       -45.71942             -200               0             -200               0
1.51316               -0.1957096       -19.21656        -54.54458       -48.06932             -200               0             -200               0
1.51974               -0.2006084       -19.39302        -54.25965       -50.48302             -200               0             -200               0
1.52632               -0.2056394       -19.57201        -53.96127       -52.97197             -200               0             -200               0
1.53289               -0.2108137       -19.75358        -53.65137       -55.54516             -200               0             -200               0
1.53947               -0.2161413       -19.93781        -53.33199       -58.20904             -200               0             -200               0
1.54605               -0.2216366       -20.12478        -53.00515       -60.96775             -200               0             -200               0
1.55263               -0.2273125       -20.31452        -52.67285       -63.82321             -200               0             -200               0
1.55921               -0.2331822       -20.50711        -52.33697       -66.77544             -200               0             -200               0
1.56579                 -0.23926       -20.70257        -51.99925       -69.82287             -200               0             -200               0
1.57237               -0.2455591       -20.90097         -51.6613       -72.96255             -200               0             -200               0
1.57895               -0.2520954       -21.10232        -51.32454       -76.19054             -200               0             -200               0
1.58553               -0.2588807       -21.30667        -50.99022       -79.50209             -200               0             -200               0
1.59211                -0.265929       -21.51403        -50.65943       -82.89185             -200               0             -200               0
1.59868               -0.2732549       -21.72443         -50.3331       -86.35413             -200               0             -200               0
1.60526               -0.2808679       -21.93788          -50.012       -89.88299             -200               0             -200               0
1.61184               -0.2887817        -22.1544        -49.69677       -93.47238             -200               0             -200               0
1.61842               -0.2970075       -22.37401         -49.3879       -97.11624             -200               0             -200               0
1.625                 -0.3055539       -22.59671         -49.0858       -100.8086             -200               0             -200               0
1.63158               -0.3144302       -22.82252        -48.79076       -104.5436             -200               0             -200               0
1.63816                -0.323647       -23.05146        -48.50297       -108.3154             -200               0             -200               0
1.64474               -0.3332094       -23.28356        -48.22254       -112.1187             -200               0             -200               0
1.65132               -0.3431243       -23.51883        -47.94952        -115.948             -200               0             -200               0
1.65789               -0.3533995       -23.75733        -47.68388       -119.7982             -200               0             -200               0
1.66447               -0.3640413       -23.99909        -47.42552       -123.6645             -200               0             -200               0
1.67105               -0.3750533       -24.24416        -47.17429       -127.5422             -200               0             -200               0
1.67763               -0.3864425       -24.49261        -46.93001       -131.4268             -200               0             -200               0
1.68421               -0.3982147       -24.74452        -46.69241       -135.3142             -200               0             -200               0
1.69079               -0.4103776       -24.99996        -46.46122       -139.2005             -200               0             -200               0
1.69737               -0.4229347       -25.25903        -46.23608       -143.0819             -200               0             -200               0
1.70395               -0.4358959       -25.52185        -46.01662        -146.955             -200               0             -200               0
1.71053               -0.4492706       -25.78852        -45.80243       -150.8166             -200               0             -200               0
1.71711               -0.4630701       -26.05919        -45.59305       -154.6639             -200               0             -200               0
1.72368               -0.4773047       -26.33399        -45.38799       -158.4942             -200               0             -200               0
1.73026               -0.4919903       -26.61308        -45.18673       -162.3054             -200               0             -200               0
1.73684                -0.507143        -26.8966        -44.98873       -166.0954             -200               0             -200               0
1.74342               -0.5227816       -27.18473        -44.79339       -169.8626             -200               0             -200               0
1.75                  -0.5389274       -27.47764        -44.60013        -173.606             -200               0             -200               0
1.75658               -0.5556043        -27.7755        -44.40831       -177.3246             -200               0             -200               0
1.76316               -0.5728402       -28.07849        -44.21732        178.9818             -200               0             -200               0
1.76974               -0.5906642       -28.38679        -44.02649        175.3132             -200               0             -200               0
1.77632                -0.609109       -28.70059        -43.83521         171.669             -200               0             -200               0
1.78289               -0.6282094       -29.02005        -43.64282        168.0483             -200               0             -200               0
1.78947               -0.6480056       -29.34534        -43.44871        164.4494             -200               0             -200               0
1.79605               -0.6685385       -29.67664         -43.2523        160.8705             -200               0             -200               0
1.80263               -0.6898515       -30.01411        -43.05302         157.309             -200               0             -200               0
1.80921               -0.7119922       -30.35789        -42.85036        153.7622             -200               0             -200               0
1.81579               -0.7350094       -30.70813        -42.64386        150.2266             -200               0             -200               0
1.82237               -0.7589547       -31.06497        -42.43312        146.6988             -200               0             -200               0
1.82895               -0.7838826       -31.42852        -42.21781        143.1747             -200               0             -200               0
1.83553               -0.8098481        -31.7989        -41.99767        139.6501             -200               0             -200               0
1.84211               -0.8369107       -32.17622        -41.77253        136.1207             -200               0             -200               0
1.84868               -0.8651277       -32.56055         -41.5423         132.582             -200               0             -200               0
1.85526               -0.8945643       -32.95199        -41.30696        129.0296             -200               0             -200               0
1.86184               -0.9252807       -33.35061        -41.06658        125.4591             -200               0             -200               0
1.86842               -0.9573433       -33.75647        -40.82131        121.8661             -200               0             -200               0
1.875                 -0.9908184       -34.16961        -40.57139        118.2466             -200               0             -200               0
1.88158                -1.025773       -34.59009        -40.31708        114.5968             -200               0             -200               0
1.88816                -1.062279       -35.01794        -40.05875        110.9131             -200               0             -200               0
1.89474                -1.100406        -35.4532        -39.79679        107.1924             -200               0             -200               0
1.90132                -1.140228       -35.89588        -39.53163        103.4319             -200               0             -200               0
1.90789                -1.181822       -36.34602        -39.26376        99.62919             -200               0             -200               0
1.91447                -1.225263       -36.80363        -38.99366         95.7823             -200               0             -200               0
1.92105                -1.270634       -37.26873        -38.72184        91.88962             -200               0             -200               0
1.92763                -1.318017       -37.74133        -38.44881        87.94993             -200               0             -200               0
1.93421                  -1.3675       -38.22144         -38.1751        83.96239             -200               0             -200               0
1.94079                -1.419172       -38.70905        -37.90119        79.92651             -200               0             -200               0
1.94737                -1.473128       -39.20418        -37.62759        75.84209             -200               0             -200               0
1.95395                -1.529468       -39.70682        -37.35477        71.70925             -200               0             -200               0
1.96053                -1.588295       -40.21696        -37.08318        67.52835             -200               0             -200               0
1.96711                -1.649718       -40.73458        -36.81326        63.29999             -200               0             -200               0
1.97368                -1.713854       -41.25966         -36.5454        59.02495             -200               0             -200               0
1.98026                -1.780825       -41.79216           -36.28        54.70419             -200               0             -200               0
1.98684                -1.850758       -42.33202         -36.0174        50.33881             -200               0             -200               0
1.99342                -1.923791       -42.87916        -35.75794        45.93001             -200               0             -200               0
2                      -2.000069       -43.43349        -35.50191        41.47911             -200               0             -200               0
2.00658                -2.079744       -43.99489        -35.24958        36.98747             -200               0             -200               0
2.01316                -2.162977       -44.56321        -35.00121        32.45651             -200               0             -200               0
2.01974                 -2.24994       -45.13826        -34.75702        27.88771             -200               0             -200               0
2.02632                -2.340815        -45.7198        -34.51723        23.28254             -200               0             -200               0
2.03289                -2.435791       -46.30754          -34.282         18.6425             -200               0             -200               0
2.03947                -2.535069       -46.90118        -34.05152        13.96908             -200               0             -200               0
2.04605                -2.638863        -47.5003        -33.82592        9.263764             -200               0             -200               0
2.05263                -2.747397       -48.10444        -33.60533        4.528023             -200               0             -200               0
2.05921                -2.860904       -48.71309        -33.38988      -0.2366974             -200               0             -200               0
2.06579                -2.979632       -49.32562        -33.17965       -5.028974             -200               0             -200               0
2.07237                -3.103841       -49.94131        -32.97475       -9.847417             -200               0             -200               0
2.07895                -3.233803       -50.55938        -32.77524       -14.69066             -200               0             -200               0
2.08553                -3.369803       -51.17888        -32.58119       -19.55739             -200               0             -200               0
2.09211                -3.512138       -51.79881        -32.39266        -24.4463             -200               0             -200               0
2.09868                -3.661124       -52.41797         -32.2097       -29.35614             -200               0             -200               0
2.10526                -3.817085       -53.03506        -32.03234       -34.28568             -200               0             -200               0
2.11184                -3.980364       -53.64861        -31.86062       -39.23376             -200               0             -200               0
2.11842                -4.151319       -54.25695        -31.69457        -44.1992             -200               0             -200               0
2.125                  -4.330324       -54.85828        -31.53421       -49.18089             -200               0             -200               0
2.13158                -4.517768        -55.4505        -31.37956       -54.17776             -200               0             -200               0
2.13816                -4.714061       -56.03135        -31.23063       -59.18874             -200               0             -200               0
2.14474                -4.919629       -56.59826        -31.08742       -64.21282             -200               0             -200               0
2.15132                 -5.13492       -57.14838        -30.94995         -69.249             -200               0             -200               0
2.15789                -5.360398       -57.67853        -30.81821       -74.29631             -200               0             -200               0
2.16447                -5.596552       -58.18515        -30.69221       -79.35383             -200               0             -200               0
2.17105                 -5.84389       -58.66426        -30.57194       -84.42063             -200               0             -200               0
2.17763                -6.102942       -59.11139         -30.4574       -89.49582             -200               0             -200               0
2.18421                -6.374261       -59.52152        -30.34858       -94.57852             -200               0             -200               0
2.19079                -6.658418         -59.889        -30.24548        -99.6679             -200               0             -200               0
2.19737                -6.956008       -60.20742        -30.14808       -104.7631             -200               0             -200               0
2.20395                -7.267638       -60.46957        -30.05638       -109.8634             -200               0             -200               0
2.21053                -7.593929       -60.66718        -29.97036       -114.9678             -200               0             -200               0
2.21711                -7.935502       -60.79089        -29.89002       -120.0757             -200               0             -200               0
2.22368                -8.292972       -60.82993        -29.81533       -125.1862             -200               0             -200               0
2.23026                -8.666928       -60.77198         -29.7463       -130.2987             -200               0             -200               0
2.23684                -9.057902       -60.60284        -29.68289       -135.4122             -200               0             -200               0
2.24342                -9.466341       -60.30613         -29.6251       -140.5262             -200               0             -200               0
2.25                   -9.892543       -59.86296        -29.57291       -145.6398             -200               0             -200               0
2.25658                -10.33659       -59.25146         -29.5263       -150.7524             -200               0             -200               0
2.26316                -10.79824       -58.44643        -29.48526       -155.8631             -200               0             -200               0
2.26974                -11.27677       -57.41889        -29.44977       -160.9712             -200               0             -200               0
2.27632                -11.77081        -56.1358        -29.41982       -166.0761             -200               0             -200               0
2.28289                  -12.278       -54.55997        -29.39538        -171.177             -200               0             -200               0
2.28947                -12.79474       -52.65047        -29.37643       -176.2732             -200               0             -200               0