! TOUCHSTONE file generated by CST MICROWAVE STUDIO
! Date and time: Tue Mar 18 00:03:03 2025
! Project name: oblique.cst
! Parameters = {Tilt=40; Fracture=1; B=12.5; D=160; F=25; Feed=2.85625; L=100; M=30; R=0.384908; S=1; Theta=270; length=57.125; wave=114.25}
! Header version: 2024
! Port assignment regex: !\s*Touchstone port\s*([0-9]+)\s*=\s*(CST MWS port|CST DES external port|CST DES block port)\s*(.+)\s* \(\"(.*)\"\)(\s*mode\s*([0-9]+))?.*
! Touchstone port assignment:
! Touchstone port 1 = CST MWS port 1 ("")
! Touchstone port 2 = CST MWS port 2 ("")
# GHz S DB R 50
1                    -0.02173473       -9.790961        -65.13599        163.9572             -200               0             -200               0
1.0066               -0.02227238       -9.877125        -65.20391         157.781             -200               0             -200               0
1.0132               -0.02278193       -9.964035        -65.30911        151.7089             -200               0             -200               0
1.0198               -0.02326923       -10.05175        -65.45363        145.7491             -200               0             -200               0
1.0264               -0.02373895       -10.14032        -65.63989        139.9123             -200               0             -200               0
1.033                 -0.0241982        -10.2298        -65.87084        134.2134             -200               0             -200               0
1.0396               -0.02465464       -10.32023        -66.14997        128.6718             -200               0             -200               0
1.0462               -0.02511881       -10.41164        -66.48146        123.3132             -200               0             -200               0
1.05281              -0.02559992       -10.50406        -66.87029        118.1721             -200               0             -200               0
1.05941              -0.02610688        -10.5975         -67.3223        113.2952             -200               0             -200               0
1.06601              -0.02664941       -10.69197        -67.84435        108.7463             -200               0             -200               0
1.07261              -0.02723591       -10.78746        -68.44425        104.6141             -200               0             -200               0
1.07921              -0.02787831       -10.88396        -69.13045         101.024             -200               0             -200               0
1.08581              -0.02858337       -10.98145        -69.91092        98.15631             -200               0             -200               0
1.09241              -0.02935829       -11.07988         -70.7904        96.27328             -200               0             -200               0
1.09901              -0.03020936       -11.17924        -71.76351        95.75461             -200               0             -200               0
1.10561               -0.0311431       -11.27947        -72.79942         97.1285             -200               0             -200               0
1.11221               -0.0321625       -11.38053        -73.81183        101.0327             -200               0             -200               0
1.11881              -0.03326965       -11.48236        -74.61924         107.927             -200               0             -200               0
1.12541              -0.03446447       -11.58493        -74.95367        117.3758             -200               0             -200               0
1.13201              -0.03574815       -11.68817        -74.61923        127.4903             -200               0             -200               0
1.13861              -0.03711857       -11.79205        -73.68581        135.9093             -200               0             -200               0
1.14521              -0.03857079       -11.89652        -72.41356        141.4429             -200               0             -200               0
1.15182              -0.04009881       -12.00155        -71.03729        144.1989             -200               0             -200               0
1.15842              -0.04169952        -12.1071        -69.68803        144.7857             -200               0             -200               0
1.16502              -0.04336478       -12.21317        -68.42026        143.8034             -200               0             -200               0
1.17162              -0.04508671       -12.31972         -67.2496        141.7072             -200               0             -200               0
1.17822               -0.0468582       -12.42677         -66.1751        138.8162             -200               0             -200               0
1.18482              -0.04866888       -12.53433         -65.1897        135.3502             -200               0             -200               0
1.19142              -0.05051203       -12.64241        -64.28477        131.4614             -200               0             -200               0
1.19802              -0.05237976       -12.75105        -63.45188        127.2572             -200               0             -200               0
1.20462               -0.0542644       -12.86028        -62.68343        122.8148             -200               0             -200               0
1.21122              -0.05616005       -12.97016        -61.97279        118.1908             -200               0             -200               0
1.21782              -0.05805875       -13.08075        -61.31427        113.4277             -200               0             -200               0
1.22442              -0.05995929        -13.1921        -60.70303        108.5579             -200               0             -200               0
1.23102              -0.06185668        -13.3043        -60.13493        103.6067             -200               0             -200               0
1.23762              -0.06375089       -13.41742        -59.60641        98.59404             -200               0             -200               0
1.24422              -0.06564134       -13.53153        -59.11446        93.53618             -200               0             -200               0
1.25083              -0.06752963       -13.64673        -58.65645        88.44646             -200               0             -200               0
1.25743              -0.06942061       -13.76308        -58.23012         83.3361             -200               0             -200               0
1.26403              -0.07131954       -13.88066        -57.83352         78.2147             -200               0             -200               0
1.27063              -0.07323346       -13.99954        -57.46491        73.09063             -200               0             -200               0
1.27723              -0.07516795       -14.11979         -57.1228        67.97135             -200               0             -200               0
1.28383               -0.0771362       -14.24147        -56.80586        62.86363             -200               0             -200               0
1.29043              -0.07914393       -14.36462         -56.5129        57.77375             -200               0             -200               0
1.29703              -0.08120652       -14.48928        -56.24287        52.70763             -200               0             -200               0
1.30363              -0.08333408       -14.61548        -55.99482        47.67097             -200               0             -200               0
1.31023              -0.08553713       -14.74324        -55.76786        42.66935             -200               0             -200               0
1.31683              -0.08783014       -14.87257        -55.56122        37.70831             -200               0             -200               0
1.32343               -0.0902214       -15.00346        -55.37412         32.7934             -200               0             -200               0
1.33003              -0.09272193        -15.1359        -55.20586        27.93032             -200               0             -200               0
1.33663              -0.09534413       -15.26986        -55.05574        23.12487             -200               0             -200               0
1.34323               -0.0980956       -15.40532        -54.92307        18.38309             -200               0             -200               0
1.34984               -0.1009818       -15.54224        -54.80715        13.71125             -200               0             -200               0
1.35644               -0.1040094       -15.68057        -54.70725        9.115879             -200               0             -200               0
1.36304               -0.1071841       -15.82028        -54.62259        4.603806             -200               0             -200               0
1.36964               -0.1105084       -15.96131        -54.55231       0.1821405             -200               0             -200               0
1.37624               -0.1139805       -16.10362        -54.49549       -4.141735             -200               0             -200               0
1.38284               -0.1176031       -16.24717        -54.45107       -8.360209             -200               0             -200               0
1.38944               -0.1213708       -16.39192        -54.41785       -12.46552             -200               0             -200               0
1.39604               -0.1252803       -16.53784        -54.39446       -16.44985             -200               0             -200               0
1.40264               -0.1293277        -16.6849        -54.37935       -20.30553             -200               0             -200               0
1.40924               -0.1335045        -16.8331        -54.37073       -24.02522             -200               0             -200               0
1.41584               -0.1378054       -16.98243        -54.36657       -27.60222             -200               0             -200               0
1.42244               -0.1422219        -17.1329        -54.36459       -31.03084             -200               0             -200               0
1.42904               -0.1467457       -17.28454        -54.36221       -34.30681             -200               0             -200               0
1.43564               -0.1513687       -17.43738        -54.35662       -37.42786             -200               0             -200               0
1.44224               -0.1560839       -17.59148        -54.34477       -40.39418             -200               0             -200               0
1.44884               -0.1608843       -17.74689        -54.32344       -43.20906             -200               0             -200               0
1.45545               -0.1657632        -17.9037        -54.28934       -45.87935             -200               0             -200               0
1.46205               -0.1707164       -18.06198         -54.2392       -48.41592             -200               0             -200               0
1.46865               -0.1757416       -18.22184        -54.16993       -50.83376             -200               0             -200               0
1.47525               -0.1808383       -18.38338        -54.07879       -53.15197             -200               0             -200               0
1.48185               -0.1860045        -18.5467        -53.96352       -55.39334             -200               0             -200               0
1.48845               -0.1912473       -18.71193        -53.82254       -57.58348             -200               0             -200               0
1.49505               -0.1965678       -18.87917        -53.65502       -59.74988             -200               0             -200               0
1.50165               -0.2019766       -19.04855        -53.46092       -61.92055             -200               0             -200               0
1.50825               -0.2074825       -19.22017        -53.24104       -64.12268             -200               0             -200               0
1.51485               -0.2130975       -19.39414        -52.99691       -66.38143             -200               0             -200               0
1.52145               -0.2188349       -19.57056        -52.73069       -68.71887             -200               0             -200               0
1.52805               -0.2247111       -19.74952          -52.445       -71.15327             -200               0             -200               0
1.53465               -0.2307422        -19.9311        -52.14278       -73.69876             -200               0             -200               0
1.54125                -0.236947       -20.11536        -51.82711       -76.36524             -200               0             -200               0
1.54785               -0.2433435       -20.30236        -51.50108        -79.1587             -200               0             -200               0
1.55446               -0.2499533       -20.49214        -51.16766       -82.08154             -200               0             -200               0
1.56106                -0.256794       -20.68472        -50.82965       -85.13317             -200               0             -200               0
1.56766               -0.2638863        -20.8801        -50.48958       -88.31054             -200               0             -200               0
1.57426               -0.2712477       -21.07829        -50.14972        -91.6087             -200               0             -200               0
1.58086               -0.2788964       -21.27927        -49.81206       -95.02131             -200               0             -200               0
1.58746               -0.2868481         -21.483         -49.4783       -98.54104             -200               0             -200               0
1.59406               -0.2951182       -21.68946        -49.14989         -102.16             -200               0             -200               0
1.60066               -0.3037186        -21.8986        -48.82804       -105.8698             -200               0             -200               0
1.60726               -0.3126587       -22.11036        -48.51372       -109.6621             -200               0             -200               0
1.61386               -0.3219491        -22.3247        -48.20774       -113.5286             -200               0             -200               0
1.62046               -0.3315927       -22.54156        -47.91073        -117.461             -200               0             -200               0
1.62706               -0.3415942       -22.76089        -47.62317       -121.4513             -200               0             -200               0
1.63366               -0.3519533       -22.98266        -47.34542       -125.4918             -200               0             -200               0
1.64026                -0.362671       -23.20684        -47.07772        -129.575             -200               0             -200               0
1.64686                -0.373741       -23.43339        -46.82023       -133.6938             -200               0             -200               0
1.65347               -0.3851595       -23.66233        -46.57303       -137.8413             -200               0             -200               0
1.66007               -0.3969202       -23.89366        -46.33609        -142.011             -200               0             -200               0
1.66667               -0.4090155       -24.12742        -46.10937       -146.1965             -200               0             -200               0
1.67327               -0.4214371       -24.36366        -45.89274       -150.3917             -200               0             -200               0
1.67987               -0.4341762       -24.60246        -45.68601       -154.5908             -200               0             -200               0
1.68647               -0.4472264       -24.84391        -45.48896       -158.7881             -200               0             -200               0
1.69307               -0.4605794       -25.08815        -45.30129       -162.9783             -200               0             -200               0
1.69967               -0.4742314       -25.33531        -45.12269        -167.156             -200               0             -200               0
1.70627               -0.4881786       -25.58556        -44.95277       -171.3162             -200               0             -200               0
1.71287               -0.5024207       -25.83909        -44.79109       -175.4539             -200               0             -200               0
1.71947               -0.5169591       -26.09612        -44.63718       -179.5646             -200               0             -200               0
1.72607               -0.5318013       -26.35685        -44.49049        176.3564             -200               0             -200               0
1.73267               -0.5469551       -26.62153        -44.35042        172.3134             -200               0             -200               0
1.73927               -0.5624365        -26.8904        -44.21633        168.3103             -200               0             -200               0
1.74587               -0.5782614       -27.16372        -44.08747        164.3509             -200               0             -200               0
1.75248               -0.5944527       -27.44174        -43.96307        160.4388             -200               0             -200               0
1.75908               -0.6110394       -27.72472        -43.84228        156.5768             -200               0             -200               0
1.76568               -0.6280521        -28.0129        -43.72418        152.7676             -200               0             -200               0
1.77228                -0.645526       -28.30654        -43.60778        149.0132             -200               0             -200               0
1.77888               -0.6635022       -28.60586        -43.49206         145.315             -200               0             -200               0
1.78548               -0.6820245       -28.91108        -43.37592        141.6737             -200               0             -200               0
1.79208               -0.7011393        -29.2224        -43.25823        138.0894             -200               0             -200               0
1.79868               -0.7208983       -29.54002        -43.13784        134.5609             -200               0             -200               0
1.80528               -0.7413546       -29.86407        -43.01358        131.0864             -200               0             -200               0
1.81188               -0.7625627       -30.19471        -42.88428        127.6631             -200               0             -200               0
1.81848               -0.7845803       -30.53206        -42.74883         124.287             -200               0             -200               0
1.82508               -0.8074643       -30.87619        -42.60617        120.9531             -200               0             -200               0
1.83168               -0.8312737        -31.2272         -42.4553        117.6554             -200               0             -200               0
1.83828               -0.8560664       -31.58512        -42.29538        114.3871             -200               0             -200               0
1.84488               -0.8819011          -31.95        -42.12568        111.1405             -200               0             -200               0
1.85149               -0.9088348       -32.32185        -41.94564        107.9072             -200               0             -200               0
1.85809               -0.9369235       -32.70068        -41.75486        104.6782             -200               0             -200               0
1.86469               -0.9662213       -33.08648        -41.55317        101.4445             -200               0             -200               0
1.87129               -0.9967825       -33.47924        -41.34057        98.19688             -200               0             -200               0
1.87789                -1.028658       -33.87896        -41.11725        94.92628             -200               0             -200               0
1.88449                -1.061898       -34.28563        -40.88359        91.62407             -200               0             -200               0
1.89109                -1.096551       -34.69926        -40.64014        88.28217             -200               0             -200               0
1.89769                -1.132666       -35.11983        -40.38759        84.89324             -200               0             -200               0
1.90429                -1.170288       -35.54741        -40.12674        81.45078             -200               0             -200               0
1.91089                -1.209467       -35.98202        -39.85851        77.94921             -200               0             -200               0
1.91749                 -1.25025       -36.42375        -39.58385        74.38394             -200               0             -200               0
1.92409                -1.292687       -36.87269        -39.30378        70.75135             -200               0             -200               0
1.93069                -1.336827       -37.32897        -39.01933        67.04874             -200               0             -200               0
1.93729                -1.382729       -37.79275         -38.7315        63.27433             -200               0             -200               0
1.94389                 -1.43045       -38.26421        -38.44129        59.42713             -200               0             -200               0
1.9505                 -1.480056       -38.74358        -38.14965        55.50691             -200               0             -200               0
1.9571                 -1.531617        -39.2311        -37.85749        51.51404             -200               0             -200               0
1.9637                 -1.585212       -39.72707        -37.56565        47.44949             -200               0             -200               0
1.9703                 -1.640931       -40.23178        -37.27492        43.31463             -200               0             -200               0
1.9769                 -1.698869       -40.74557        -36.98602        39.11123             -200               0             -200               0
1.9835                 -1.759138       -41.26877        -36.69959        34.84136             -200               0             -200               0
1.9901                 -1.821858       -41.80174        -36.41623        30.50728             -200               0             -200               0
1.9967                 -1.887164       -42.34485        -36.13647        26.11145             -200               0             -200               0
2.0033                 -1.955206       -42.89845        -35.86078         21.6564             -200               0             -200               0
2.0099                 -2.026144        -43.4629        -35.58957        17.14474             -200               0             -200               0
2.0165                 -2.100163       -44.03852         -35.3232        12.57911             -200               0             -200               0
2.0231                 -2.177457       -44.62563          -35.062        7.962135             -200               0             -200               0
2.0297                 -2.258239       -45.22447        -34.80624        3.296417             -200               0             -200               0
2.0363                 -2.342742       -45.83527        -34.55616       -1.415493             -200               0             -200               0
2.0429                 -2.431215        -46.4582        -34.31195       -6.171104             -200               0             -200               0
2.0495                 -2.523925       -47.09334         -34.0738         -10.968             -200               0             -200               0
2.05611                -2.621158       -47.74072        -33.84184       -15.80386             -200               0             -200               0
2.06271                -2.723221       -48.40026        -33.61619       -20.67641             -200               0             -200               0
2.06931                -2.830436       -49.07179        -33.39697        -25.5835             -200               0             -200               0
2.07591                -2.943148       -49.75504        -33.18423       -30.52306             -200               0             -200               0
2.08251                -3.061722       -50.44961        -32.97806        -35.4931             -200               0             -200               0
2.08911                -3.186539       -51.15498         -32.7785       -40.49173             -200               0             -200               0
2.09571                -3.318004       -51.87047        -32.58558       -45.51713             -200               0             -200               0
2.10231                -3.456542       -52.59528        -32.39934       -50.56757             -200               0             -200               0
2.10891                -3.602598       -53.32842        -32.21979       -55.64141             -200               0             -200               0
2.11551                -3.756644       -54.06874        -32.04694       -60.73708             -200               0             -200               0
2.12211                -3.919169        -54.8149         -31.8808       -65.85305             -200               0             -200               0
2.12871                -4.090693       -55.56533        -31.72137       -70.98791             -200               0             -200               0
2.13531                -4.271761       -56.31827        -31.56863       -76.14028             -200               0             -200               0
2.14191                -4.462946       -57.07169        -31.42259       -81.30885             -200               0             -200               0
2.14851                -4.664854       -57.82327        -31.28321       -86.49236             -200               0             -200               0
2.15512                -4.878126       -58.57043         -31.1505       -91.68962             -200               0             -200               0
2.16172                -5.103438       -59.31022        -31.02443       -96.89946             -200               0             -200               0
2.16832                -5.341511       -60.03932        -30.90498       -102.1208             -200               0             -200               0
2.17492                 -5.59311       -60.75397        -30.79213       -107.3525             -200               0             -200               0
2.18152                -5.859057        -61.4499        -30.68587       -112.5937             -200               0             -200               0
2.18812                -6.140226       -62.12227        -30.58616       -117.8432             -200               0             -200               0
2.19472                -6.437558       -62.76556        -30.49299       -123.1001             -200               0             -200               0
2.20132                -6.752067       -63.37344        -30.40634       -128.3636             -200               0             -200               0
2.20792                -7.084847       -63.93862        -30.32619       -133.6327             -200               0             -200               0
2.21452                -7.437077       -64.45269        -30.25251       -138.9065             -200               0             -200               0
2.22112                -7.810034       -64.90581        -30.18528       -144.1842             -200               0             -200               0
2.22772                -8.205101       -65.28649        -30.12449       -149.4648             -200               0             -200               0
2.23432                -8.623767       -65.58111        -30.07011       -154.7477             -200               0             -200               0
2.24092                -9.067632       -65.77353        -30.02214        -160.032             -200               0             -200               0
2.24752                -9.538399       -65.84433        -29.98054       -165.3169             -200               0             -200               0
2.25413                -10.03785       -65.77009        -29.94531       -170.6016             -200               0             -200               0
2.26073                -10.56782       -65.52225        -29.91643       -175.8854             -200               0             -200               0
2.26733                -11.13008       -65.06582        -29.89388        178.8326             -200               0             -200               0
2.27393                -11.72621       -64.35756        -29.87765        173.5532             -200               0             -200               0
2.28053                -12.35735       -63.34387        -29.86773         168.277             -200               0             -200               0
2.28713                -13.02377       -61.95819        -29.86411        163.0048             -200               0             -200               0
2.29373                -13.72411        -60.1182        -29.86677        157.7375             -200               0             -200               0