! TOUCHSTONE file generated by CST MICROWAVE STUDIO
! Date and time: Tue Mar 18 00:02:31 2025
! Project name: oblique.cst
! Parameters = {Tilt=40; Fracture=1; B=12.5; D=160; F=5; Feed=2.85625; L=100; M=30; R=0.384908; S=1; Theta=90; length=57.125; wave=114.25}
! Header version: 2024
! Port assignment regex: !\s*Touchstone port\s*([0-9]+)\s*=\s*(CST MWS port|CST DES external port|CST DES block port)\s*(.+)\s* \(\"(.*)\"\)(\s*mode\s*([0-9]+))?.*
! Touchstone port assignment:
! Touchstone port 1 = CST MWS port 1 ("")
! Touchstone port 2 = CST MWS port 2 ("")
# GHz S DB R 50
1                    -0.02080743       -9.858764        -67.52295       -175.0902             -200               0             -200               0
1.0066               -0.02165275        -9.94785        -67.49658       -179.9439             -200               0             -200               0
1.0132               -0.02252977       -10.03735        -67.49986        175.3121             -200               0             -200               0
1.0198               -0.02343409       -10.12726        -67.53291        170.6907             -200               0             -200               0
1.0264               -0.02436173       -10.21758        -67.59587        166.2072             -200               0             -200               0
1.033                -0.02530799       -10.30833        -67.68886        161.8798             -200               0             -200               0
1.0396               -0.02626799       -10.39951         -67.8119        157.7296             -200               0             -200               0
1.0462               -0.02723779       -10.49114        -67.96482        153.7817             -200               0             -200               0
1.05281              -0.02821267       -10.58325        -68.14713        150.0658             -200               0             -200               0
1.05941              -0.02919037       -10.67587        -68.35779        146.6163             -200               0             -200               0
1.06601              -0.03016586       -10.76903        -68.59495        143.4736             -200               0             -200               0
1.07261              -0.03113865       -10.86277        -68.85558        140.6838             -200               0             -200               0
1.07921              -0.03210505       -10.95714        -69.13494        138.2984             -200               0             -200               0
1.08581              -0.03306688       -11.05217        -69.42593        136.3729             -200               0             -200               0
1.09241              -0.03402289       -11.14792        -69.71834        134.9625             -200               0             -200               0
1.09901              -0.03497383       -11.24443         -69.9981        134.1157             -200               0             -200               0
1.10561              -0.03592249       -11.34174        -70.24689        133.8627             -200               0             -200               0
1.11221              -0.03687173        -11.4399        -70.44245        134.2006             -200               0             -200               0
1.11881               -0.0378249       -11.53896        -70.56031        135.0765             -200               0             -200               0
1.12541               -0.0387866       -11.63894        -70.57723        136.3763             -200               0             -200               0
1.13201              -0.03976245       -11.73988        -70.47583         137.926             -200               0             -200               0
1.13861              -0.04075683       -11.84181        -70.24896        139.5125             -200               0             -200               0
1.14521               -0.0417766       -11.94475        -69.90167        140.9199             -200               0             -200               0
1.15182              -0.04282909       -12.04871        -69.44974        141.9663             -200               0             -200               0
1.15842              -0.04391892       -12.15372         -68.9156        142.5276             -200               0             -200               0
1.16502              -0.04505331       -12.25977        -68.32357        142.5421             -200               0             -200               0
1.17162              -0.04623729       -12.36687        -67.69616        142.0005             -200               0             -200               0
1.17822              -0.04747724       -12.47499        -67.05215        140.9295             -200               0             -200               0
1.18482              -0.04877761       -12.58415        -66.40599         139.376             -200               0             -200               0
1.19142              -0.05014356       -12.69431         -65.7682        137.3957             -200               0             -200               0
1.19802              -0.05157714       -12.80546        -65.14604         135.045             -200               0             -200               0
1.20462              -0.05308261       -12.91758        -64.54428        132.3773             -200               0             -200               0
1.21122              -0.05466018       -13.03065        -63.96585        129.4407             -200               0             -200               0
1.21782              -0.05631053       -13.14463        -63.41242        126.2778             -200               0             -200               0
1.22442              -0.05803478       -13.25952        -62.88475        122.9252             -200               0             -200               0
1.23102               -0.0598304       -13.37529        -62.38301        119.4149             -200               0             -200               0
1.23762              -0.06169476       -13.49192        -61.90694        115.7743             -200               0             -200               0
1.24422              -0.06362603       -13.60941        -61.45607        112.0271             -200               0             -200               0
1.25083              -0.06561862       -13.72774        -61.02974        108.1939             -200               0             -200               0
1.25743              -0.06766967       -13.84691        -60.62722        104.2924             -200               0             -200               0
1.26403              -0.06977464       -13.96693         -60.2477        100.3385             -200               0             -200               0
1.27063              -0.07192599       -14.08782        -59.89036        96.34619             -200               0             -200               0
1.27723              -0.07412062       -14.20959         -59.5544        92.32794             -200               0             -200               0
1.28383              -0.07635248       -14.33228        -59.23898         88.2951             -200               0             -200               0
1.29043              -0.07861655       -14.45591        -58.94328        84.25805             -200               0             -200               0
1.29703              -0.08090841       -14.58054        -58.66651        80.22638             -200               0             -200               0
1.30363              -0.08322391       -14.70621        -58.40783        76.20908             -200               0             -200               0
1.31023              -0.08556048       -14.83299        -58.16643        72.21463             -200               0             -200               0
1.31683              -0.08791517       -14.96093        -57.94148        68.25109             -200               0             -200               0
1.32343              -0.09028735        -15.0901        -57.73211        64.32619             -200               0             -200               0
1.33003              -0.09267745       -15.22058        -57.53744        60.44742             -200               0             -200               0
1.33663              -0.09508529       -15.35243        -57.35654        56.62197             -200               0             -200               0
1.34323              -0.09751388       -15.48574        -57.18839        52.85683             -200               0             -200               0
1.34984              -0.09996784       -15.62057        -57.03195        49.15872             -200               0             -200               0
1.35644               -0.1024512       -15.75699        -56.88606        45.53408             -200               0             -200               0
1.36304               -0.1049699       -15.89509        -56.74947        41.98898             -200               0             -200               0
1.36964               -0.1075313       -16.03492        -56.62085        38.52907             -200               0             -200               0
1.37624               -0.1101429       -16.17655        -56.49873        35.15939             -200               0             -200               0
1.38284               -0.1128129       -16.32002        -56.38152        31.88429             -200               0             -200               0
1.38944               -0.1155524        -16.4654        -56.26752        28.70723             -200               0             -200               0
1.39604               -0.1183706       -16.61271        -56.15491        25.63054             -200               0             -200               0
1.40264               -0.1212764       -16.76201        -56.04176        22.65525             -200               0             -200               0
1.40924               -0.1242816       -16.91332        -55.92608        19.78082             -200               0             -200               0
1.41584               -0.1273941       -17.06665         -55.8058        17.00498             -200               0             -200               0
1.42244               -0.1306252       -17.22203        -55.67886        14.32352             -200               0             -200               0
1.42904               -0.1339834       -17.37947        -55.54325        11.73013             -200               0             -200               0
1.43564               -0.1374763       -17.53897        -55.39707         9.21644             -200               0             -200               0
1.44224               -0.1411126       -17.70053        -55.23859        6.771992             -200               0             -200               0
1.44884               -0.1448975       -17.86415        -55.06633        4.384465             -200               0             -200               0
1.45545               -0.1488386       -18.02983        -54.87909         2.03995             -200               0             -200               0
1.46205               -0.1529386       -18.19757        -54.67608      -0.2766319             -200               0             -200               0
1.46865                -0.157202       -18.36737        -54.45685       -2.581045             -200               0             -200               0
1.47525               -0.1616313       -18.53923        -54.22139       -4.889177             -200               0             -200               0
1.48185               -0.1662279       -18.71315        -53.97008       -7.216486             -200               0             -200               0
1.48845               -0.1709931       -18.88915        -53.70368       -9.577469             -200               0             -200               0
1.49505               -0.1759266       -19.06726        -53.42328       -11.98522             -200               0             -200               0
1.50165               -0.1810274       -19.24749        -53.13021       -14.45107             -200               0             -200               0
1.50825               -0.1862962       -19.42988        -52.82604        -16.9844             -200               0             -200               0
1.51485               -0.1917313       -19.61449        -52.51244       -19.59248             -200               0             -200               0
1.52145               -0.1973324       -19.80137        -52.19116       -22.28052             -200               0             -200               0
1.52805               -0.2030989       -19.99058        -51.86394       -25.05176             -200               0             -200               0
1.53465                -0.209032        -20.1822        -51.53249       -27.90763             -200               0             -200               0
1.54125               -0.2151323       -20.37632        -51.19842       -30.84795             -200               0             -200               0
1.54785               -0.2214026       -20.57303        -50.86325       -33.87117             -200               0             -200               0
1.55446               -0.2278473       -20.77244        -50.52835       -36.97463             -200               0             -200               0
1.56106                -0.234471       -20.97466        -50.19495       -40.15471             -200               0             -200               0
1.56766               -0.2412813        -21.1798        -49.86416       -43.40714             -200               0             -200               0
1.57426               -0.2482877       -21.38799         -49.5369       -46.72709             -200               0             -200               0
1.58086               -0.2555002       -21.59935          -49.214       -50.10937             -200               0             -200               0
1.58746               -0.2629332         -21.814        -48.89612       -53.54857             -200               0             -200               0
1.59406               -0.2706018       -22.03207        -48.58381       -57.03913             -200               0             -200               0
1.60066               -0.2785223       -22.25367        -48.27751       -60.57547             -200               0             -200               0
1.60726               -0.2867156       -22.47892        -47.97755         -64.152             -200               0             -200               0
1.61386               -0.2952015       -22.70793        -47.68417       -67.76324             -200               0             -200               0
1.62046               -0.3040033       -22.94081        -47.39751       -71.40383             -200               0             -200               0
1.62706               -0.3131453       -23.17763        -47.11764       -75.06854             -200               0             -200               0
1.63366               -0.3226538        -23.4185        -46.84454       -78.75231             -200               0             -200               0
1.64026               -0.3325542       -23.66346        -46.57815        -82.4503             -200               0             -200               0
1.64686               -0.3428758        -23.9126        -46.31831       -86.15785             -200               0             -200               0
1.65347               -0.3536467       -24.16594        -46.06484       -89.87052             -200               0             -200               0
1.66007               -0.3648924       -24.42353        -45.81747       -93.58412             -200               0             -200               0
1.66667               -0.3766435       -24.68539         -45.5759        -97.2947             -200               0             -200               0
1.67327               -0.3889272       -24.95154        -45.33976       -100.9986             -200               0             -200               0
1.67987               -0.4017704       -25.22197        -45.10867       -104.6923             -200               0             -200               0
1.68647               -0.4152001       -25.49668        -44.88216       -108.3728             -200               0             -200               0
1.69307               -0.4292413       -25.77566        -44.65974       -112.0372             -200               0             -200               0
1.69967               -0.4439182       -26.05889        -44.44089       -115.6831             -200               0             -200               0
1.70627               -0.4592543       -26.34636        -44.22505       -119.3084             -200               0             -200               0
1.71287                 -0.47527       -26.63804         -44.0116       -122.9114             -200               0             -200               0
1.71947               -0.4919864       -26.93391        -43.79993       -126.4907             -200               0             -200               0
1.72607                -0.509423       -27.23395        -43.58939       -130.0456             -200               0             -200               0
1.73267               -0.5275965       -27.53815        -43.37932       -133.5757             -200               0             -200               0
1.73927               -0.5465243       -27.84652        -43.16905        -137.081             -200               0             -200               0
1.74587                -0.566223       -28.15906         -42.9579       -140.5623             -200               0             -200               0
1.75248               -0.5867066       -28.47579         -42.7452       -144.0207             -200               0             -200               0
1.75908               -0.6079933       -28.79674        -42.53033       -147.4578             -200               0             -200               0
1.76568               -0.6300961       -29.12196        -42.31265       -150.8759             -200               0             -200               0
1.77228                -0.653032       -29.45151        -42.09159       -154.2776             -200               0             -200               0
1.77888               -0.6768185       -29.78548        -41.86664       -157.6661             -200               0             -200               0
1.78548               -0.7014745       -30.12395        -41.63731       -161.0451             -200               0             -200               0
1.79208               -0.7270205       -30.46705        -41.40322       -164.4185             -200               0             -200               0
1.79868               -0.7534795       -30.81491        -41.16404       -167.7906             -200               0             -200               0
1.80528               -0.7808776       -31.16765        -40.91954       -171.1658             -200               0             -200               0
1.81188               -0.8092432       -31.52546        -40.66957        -174.549             -200               0             -200               0
1.81848               -0.8386108       -31.88848        -40.41407       -177.9448             -200               0             -200               0
1.82508               -0.8690173       -32.25691        -40.15308         178.642             -200               0             -200               0
1.83168               -0.9005042       -32.63092        -39.88671        175.2068             -200               0             -200               0
1.83828               -0.9331184       -33.01071        -39.61517        171.7451             -200               0             -200               0
1.84488               -0.9669122       -33.39646        -39.33872        168.2528             -200               0             -200               0
1.85149                -1.001941       -33.78836        -39.05773         164.726             -200               0             -200               0
1.85809                -1.038269       -34.18661        -38.77259        161.1611             -200               0             -200               0
1.86469                -1.075963       -34.59134        -38.48376         157.555             -200               0             -200               0
1.87129                -1.115097       -35.00275        -38.19173         153.905             -200               0             -200               0
1.87789                -1.155751       -35.42096        -37.89702         150.209             -200               0             -200               0
1.88449                -1.198008        -35.8461        -37.60016        146.4649             -200               0             -200               0
1.89109                -1.241959       -36.27826        -37.30172        142.6715             -200               0             -200               0
1.89769                -1.287695       -36.71752        -37.00222        138.8276             -200               0             -200               0
1.90429                -1.335321       -37.16392        -36.70222        134.9329             -200               0             -200               0
1.91089                -1.384937       -37.61747        -36.40225        130.9868             -200               0             -200               0
1.91749                -1.436651       -38.07815        -36.10281        126.9896             -200               0             -200               0
1.92409                -1.490578       -38.54591        -35.80439        122.9416             -200               0             -200               0
1.93069                 -1.54683       -39.02064        -35.50746        118.8433             -200               0             -200               0
1.93729                -1.605526       -39.50222        -35.21246        114.6957             -200               0             -200               0
1.94389                 -1.66679       -39.99047        -34.91978        110.4997             -200               0             -200               0
1.9505                 -1.730744       -40.48519        -34.62981        106.2565             -200               0             -200               0
1.9571                 -1.797515       -40.98611         -34.3429        101.9673             -200               0             -200               0
1.9637                  -1.86723       -41.49295        -34.05937        97.63368             -200               0             -200               0
1.9703                 -1.940021       -42.00537        -33.77951        93.25696             -200               0             -200               0
1.9769                  -2.01602       -42.52301        -33.50358        88.83872             -200               0             -200               0
1.9835                 -2.095359       -43.04545        -33.23183        84.38052             -200               0             -200               0
1.9901                 -2.178175       -43.57225        -32.96447        79.88394             -200               0             -200               0
1.9967                 -2.264602       -44.10293        -32.70168        75.35059             -200               0             -200               0
2.0033                 -2.354781       -44.63694        -32.44365        70.78207             -200               0             -200               0
2.0099                 -2.448852       -45.17373        -32.19052        66.17995             -200               0             -200               0
2.0165                 -2.546957       -45.71272        -31.94243        61.54579             -200               0             -200               0
2.0231                 -2.649241       -46.25326        -31.69949        56.88115             -200               0             -200               0
2.0297                 -2.755851       -46.79467         -31.4618        52.18752             -200               0             -200               0
2.0363                  -2.86694       -47.33624        -31.22945        47.46639             -200               0             -200               0
2.0429                 -2.982662       -47.87723        -31.00252        42.71919             -200               0             -200               0
2.0495                 -3.103177       -48.41682        -30.78106        37.94732             -200               0             -200               0
2.05611                -3.228648       -48.95418        -30.56514        33.15213             -200               0             -200               0
2.06271                -3.359246       -49.48843         -30.3548        28.33496             -200               0             -200               0
2.06931                -3.495148       -50.01859        -30.15006        23.49707             -200               0             -200               0
2.07591                 -3.63654       -50.54366        -29.95097        18.63971             -200               0             -200               0
2.08251                -3.783612       -51.06257        -29.75754        13.76408             -200               0             -200               0
2.08911                -3.936567       -51.57416        -29.56978        8.871333             -200               0             -200               0
2.09571                -4.095617        -52.0772        -29.38771        3.962599             -200               0             -200               0
2.10231                -4.260987       -52.57034        -29.21134      -0.9610321             -200               0             -200               0
2.10891                -4.432911       -53.05213        -29.04067       -5.898512             -200               0             -200               0
2.11551                -4.611637         -53.521        -28.87569       -10.84882             -200               0             -200               0
2.12211                -4.797429       -53.97522         -28.7164       -15.81096             -200               0             -200               0
2.12871                -4.990565       -54.41291        -28.56279       -20.78398             -200               0             -200               0
2.13531                -5.191337       -54.83199        -28.41485       -25.76695             -200               0             -200               0
2.14191                 -5.40006       -55.23016        -28.27258       -30.75896             -200               0             -200               0
2.14851                -5.617059       -55.60488        -28.13595       -35.75914             -200               0             -200               0
2.15512                -5.842682       -55.95331        -28.00495       -40.76662             -200               0             -200               0
2.16172                -6.077294       -56.27231        -27.87957       -45.78059             -200               0             -200               0
2.16832                -6.321277       -56.55833        -27.75978       -50.80021             -200               0             -200               0
2.17492                 -6.57503       -56.80741        -27.64556        -55.8247             -200               0             -200               0
2.18152                -6.838972       -57.01508         -27.5369       -60.85328             -200               0             -200               0
2.18812                -7.113534        -57.1763        -27.43378       -65.88518             -200               0             -200               0
2.19472                -7.399153       -57.28536        -27.33617       -70.91966             -200               0             -200               0
2.20132                 -7.69628       -57.33579        -27.24405       -75.95599             -200               0             -200               0
2.20792                -8.005356       -57.32027        -27.15739       -80.99344             -200               0             -200               0
2.21452                -8.326812       -57.23041        -27.07618       -86.03129             -200               0             -200               0
2.22112                -8.661052       -57.05667        -27.00039       -91.06884             -200               0             -200               0
2.22772                -9.008432       -56.78817        -26.92998       -96.10541             -200               0             -200               0
2.23432                -9.369228       -56.41245        -26.86495       -101.1403             -200               0             -200               0
2.24092                -9.743606       -55.91531        -26.80526       -106.1728             -200               0             -200               0
2.24752                -10.13156       -55.28052        -26.75088       -111.2023             -200               0             -200               0
2.25413                -10.53286       -54.48961        -26.70178        -116.228             -200               0             -200               0
2.26073                -10.94693       -53.52167        -26.65795       -121.2493             -200               0             -200               0
2.26733                -11.37276       -52.35315        -26.61934       -126.2656             -200               0             -200               0
2.27393                -11.80873       -50.95792        -26.58594       -131.2761             -200               0             -200               0
2.28053                 -12.2524        -49.3074         -26.5577       -136.2803             -200               0             -200               0
2.28713                -12.70033       -47.37125        -26.53459       -141.2773             -200               0             -200               0
2.29373                -13.14772       -45.11847        -26.51659       -146.2666             -200               0             -200               0