! TOUCHSTONE file generated by CST MICROWAVE STUDIO
! Date and time: Tue Mar 18 00:03:09 2025
! Project name: oblique.cst
! Parameters = {Tilt=40; Fracture=1; B=12.5; D=160; F=25; Feed=2.85625; L=100; M=50; R=0.384908; S=2; Theta=270; length=57.125; wave=114.25}
! Header version: 2024
! Port assignment regex: !\s*Touchstone port\s*([0-9]+)\s*=\s*(CST MWS port|CST DES external port|CST DES block port)\s*(.+)\s* \(\"(.*)\"\)(\s*mode\s*([0-9]+))?.*
! Touchstone port assignment:
! Touchstone port 1 = CST MWS port 1 ("")
! Touchstone port 2 = CST MWS port 2 ("")
# GHz S DB R 50
1                    -0.01918975       -9.811363        -70.20714         133.982             -200               0             -200               0
1.0076               -0.02014523        -9.91272        -70.20164        128.8091             -200               0             -200               0
1.01521              -0.02111002       -10.01465        -70.21453        123.7295             -200               0             -200               0
1.02281              -0.02207907       -10.11718        -70.24591        118.7505             -200               0             -200               0
1.03042              -0.02304914       -10.22037        -70.29587        113.8803             -200               0             -200               0
1.03802              -0.02401435       -10.32425        -70.36446        109.1288             -200               0             -200               0
1.04563               -0.0249737       -10.42887        -70.45166         104.507             -200               0             -200               0
1.05323              -0.02592507       -10.53429        -70.55736         100.028             -200               0             -200               0
1.06084              -0.02686771       -10.64057        -70.68128        95.70662             -200               0             -200               0
1.06844              -0.02780183       -10.74777        -70.82292        91.55978             -200               0             -200               0
1.07605              -0.02872859       -10.85595        -70.98149        87.60678             -200               0             -200               0
1.08365              -0.02965018       -10.96517        -71.15574        83.86932             -200               0             -200               0
1.09125              -0.03057133       -11.07549        -71.34389        80.37147             -200               0             -200               0
1.09886              -0.03149513       -11.18697        -71.54339        77.13949             -200               0             -200               0
1.10646              -0.03242705       -11.29965        -71.75072        74.20121             -200               0             -200               0
1.11407              -0.03337495       -11.41361        -71.96115        71.58484             -200               0             -200               0
1.12167              -0.03434493       -11.52887        -72.16849        69.31711             -200               0             -200               0
1.12928              -0.03534416       -11.64548        -72.36487        67.42029             -200               0             -200               0
1.13688              -0.03638038       -11.76347        -72.54067        65.90812             -200               0             -200               0
1.14449              -0.03746437       -11.88287        -72.68464        64.78068             -200               0             -200               0
1.15209              -0.03860328       -12.00371        -72.78445        64.01889             -200               0             -200               0
1.1597               -0.03980607       -12.12599        -72.82759        63.57979             -200               0             -200               0
1.1673               -0.04108235       -12.24972        -72.80282        63.39451             -200               0             -200               0
1.1749               -0.04243941       -12.37491        -72.70174        63.37067             -200               0             -200               0
1.18251              -0.04388525       -12.50155        -72.52016        63.40002             -200               0             -200               0
1.19011              -0.04542852       -12.62963        -72.25892        63.37011             -200               0             -200               0
1.19772              -0.04707336       -12.75913        -71.92364        63.17721             -200               0             -200               0
1.20532              -0.04882667       -12.89005        -71.52378        62.73675             -200               0             -200               0
1.21293              -0.05069334       -13.02235        -71.07102        61.98921             -200               0             -200               0
1.22053              -0.05267728       -13.15602        -70.57779         60.9007             -200               0             -200               0
1.22814              -0.05478041       -13.29104        -70.05597        59.45983             -200               0             -200               0
1.23574              -0.05700615       -13.42737        -69.51609        57.67249             -200               0             -200               0
1.24335              -0.05935422       -13.56501        -68.96698        55.55638             -200               0             -200               0
1.25095              -0.06182472       -13.70394        -68.41573        53.13622             -200               0             -200               0
1.25856              -0.06441672       -13.84414        -67.86779        50.44006             -200               0             -200               0
1.26616               -0.0671298       -13.98561        -67.32724        47.49678             -200               0             -200               0
1.27376                -0.069958       -14.12834        -66.79703        44.33439             -200               0             -200               0
1.28137              -0.07290261       -14.27234        -66.27921        40.97915             -200               0             -200               0
1.28897               -0.0759581       -14.41763        -65.77513        37.45511             -200               0             -200               0
1.29658              -0.07912129       -14.56421        -65.28563        33.78397             -200               0             -200               0
1.30418              -0.08238819       -14.71213        -64.81115        29.98514             -200               0             -200               0
1.31179              -0.08575599       -14.86141        -64.35184        26.07584             -200               0             -200               0
1.31939              -0.08922304        -15.0121        -63.90765        22.07132             -200               0             -200               0
1.327                -0.09278605       -15.16425        -63.47836        17.98511             -200               0             -200               0
1.3346               -0.09644391       -15.31792        -63.06366        13.82914             -200               0             -200               0
1.34221                -0.100196       -15.47318        -62.66316        9.614023             -200               0             -200               0
1.34981               -0.1040416       -15.63009        -62.27641        5.349162             -200               0             -200               0
1.35741               -0.1079847       -15.78874        -61.90294        1.042943             -200               0             -200               0
1.36502               -0.1120263       -15.94919        -61.54225       -3.297142             -200               0             -200               0
1.37262                 -0.11617       -16.11153        -61.19384       -7.664378             -200               0             -200               0
1.38023               -0.1204233       -16.27585        -60.85718       -12.05272             -200               0             -200               0
1.38783               -0.1247935       -16.44223        -60.53176       -16.45673             -200               0             -200               0
1.39544                -0.129287       -16.61073        -60.21705       -20.87145             -200               0             -200               0
1.40304               -0.1339153       -16.78145        -59.91253       -25.29242             -200               0             -200               0
1.41065               -0.1386887       -16.95446        -59.61769       -29.71555             -200               0             -200               0
1.41825               -0.1436192       -17.12982        -59.33199       -34.13714             -200               0             -200               0
1.42586               -0.1487223       -17.30761        -59.05493       -38.55382             -200               0             -200               0
1.43346               -0.1540084       -17.48786        -58.78598       -42.96249             -200               0             -200               0
1.44106               -0.1594967       -17.67063        -58.52462       -47.36037             -200               0             -200               0
1.44867               -0.1652001       -17.85596        -58.27032       -51.74492             -200               0             -200               0
1.45627               -0.1711334       -18.04389        -58.02256       -56.11387             -200               0             -200               0
1.46388               -0.1773156       -18.23442         -57.7808       -60.46521             -200               0             -200               0
1.47148               -0.1837603       -18.42758        -57.54451       -64.79713             -200               0             -200               0
1.47909               -0.1904839       -18.62337        -57.31315       -69.10812             -200               0             -200               0
1.48669               -0.1974996       -18.82179        -57.08617        -73.3969             -200               0             -200               0
1.4943                -0.2048252       -19.02282        -56.86303       -77.66243             -200               0             -200               0
1.5019                -0.2124711       -19.22646        -56.64317       -81.90395             -200               0             -200               0
1.50951               -0.2204505       -19.43267        -56.42603       -86.12095             -200               0             -200               0
1.51711               -0.2287758       -19.64145        -56.21108       -90.31323             -200               0             -200               0
1.52471               -0.2374569       -19.85275        -55.99777       -94.48083             -200               0             -200               0
1.53232               -0.2465016       -20.06656        -55.78554       -98.62412             -200               0             -200               0
1.53992               -0.2559183       -20.28284        -55.57386       -102.7438             -200               0             -200               0
1.54753               -0.2657141       -20.50157        -55.36222       -106.8407             -200               0             -200               0
1.55513               -0.2758938       -20.72273         -55.1501       -110.9162             -200               0             -200               0
1.56274               -0.2864598       -20.94631        -54.93704       -114.9717             -200               0             -200               0
1.57034               -0.2974176       -21.17229        -54.72257       -119.0092             -200               0             -200               0
1.57795               -0.3087682       -21.40069        -54.50626       -123.0307             -200               0             -200               0
1.58555               -0.3205127       -21.63149        -54.28774       -127.0386             -200               0             -200               0
1.59316                -0.332653       -21.86474        -54.06664       -131.0355             -200               0             -200               0
1.60076               -0.3451895       -22.10045        -53.84267       -135.0242             -200               0             -200               0
1.60837               -0.3581227       -22.33866        -53.61557       -139.0076             -200               0             -200               0
1.61597               -0.3714542       -22.57944        -53.38513       -142.9888             -200               0             -200               0
1.62357               -0.3851842       -22.82285        -53.15119       -146.9711             -200               0             -200               0
1.63118               -0.3993169       -23.06897        -52.91366       -150.9576             -200               0             -200               0
1.63878               -0.4138544       -23.31789        -52.67248       -154.9517             -200               0             -200               0
1.64639               -0.4288021       -23.56971        -52.42767       -158.9565             -200               0             -200               0
1.65399               -0.4441665       -23.82454        -52.17926       -162.9753             -200               0             -200               0
1.6616                -0.4599549       -24.08251        -51.92738        -167.011             -200               0             -200               0
1.6692                -0.4761785       -24.34376        -51.67216       -171.0666             -200               0             -200               0
1.67681               -0.4928488        -24.6084        -51.41381       -175.1448             -200               0             -200               0
1.68441               -0.5099797       -24.87659        -51.15253        -179.248             -200               0             -200               0
1.69202               -0.5275906       -25.14847        -50.88859        176.6213             -200               0             -200               0
1.69962               -0.5456996       -25.42418        -50.62228        172.4611             -200               0             -200               0
1.70722               -0.5643272       -25.70388        -50.35389        168.2697             -200               0             -200               0
1.71483               -0.5835008       -25.98772        -50.08376        164.0454             -200               0             -200               0
1.72243               -0.6032444       -26.27582        -49.81221        159.7868             -200               0             -200               0
1.73004               -0.6235891       -26.56834        -49.53958         155.493             -200               0             -200               0
1.73764               -0.6445646        -26.8654        -49.26621         151.163             -200               0             -200               0
1.74525               -0.6662057       -27.16712        -48.99244        146.7962             -200               0             -200               0
1.75285               -0.6885452       -27.47363        -48.71861        142.3922             -200               0             -200               0
1.76046               -0.7116224       -27.78503        -48.44504        137.9509             -200               0             -200               0
1.76806               -0.7354757       -28.10142        -48.17206         133.472             -200               0             -200               0
1.77567               -0.7601427       -28.42289        -47.89997        128.9558             -200               0             -200               0
1.78327               -0.7856657       -28.74952        -47.62905        124.4026             -200               0             -200               0
1.79087               -0.8120836       -29.08137         -47.3596        119.8127             -200               0             -200               0
1.79848               -0.8394414       -29.41852        -47.09186        115.1865             -200               0             -200               0
1.80608               -0.8677792       -29.76101         -46.8261        110.5248             -200               0             -200               0
1.81369               -0.8971408        -30.1089        -46.56254        105.8282             -200               0             -200               0
1.82129               -0.9275695       -30.46224        -46.30138        101.0974             -200               0             -200               0
1.8289                -0.9591073       -30.82106        -46.04285        96.33333             -200               0             -200               0
1.8365                -0.9917985       -31.18541        -45.78711         91.5367             -200               0             -200               0
1.84411                -1.025686       -31.55533        -45.53434        86.70846             -200               0             -200               0
1.85171                -1.060814       -31.93087        -45.28469         81.8495             -200               0             -200               0
1.85932                -1.097226       -32.31209         -45.0383        76.96075             -200               0             -200               0
1.86692                -1.134967       -32.69904        -44.79531        72.04314             -200               0             -200               0
1.87452                -1.174084        -33.0918        -44.55583         67.0976             -200               0             -200               0
1.88213                -1.214624       -33.49043        -44.31996        62.12506             -200               0             -200               0
1.88973                -1.256634       -33.89506        -44.08779        57.12646             -200               0             -200               0
1.89734                -1.300168       -34.30576        -43.85943        52.10271             -200               0             -200               0
1.90494                -1.345278       -34.72268        -43.63493         47.0547             -200               0             -200               0
1.91255                -1.392023       -35.14595        -43.41437        41.98333             -200               0             -200               0
1.92015                -1.440462       -35.57574        -43.19781        36.88946             -200               0             -200               0
1.92776                -1.490663        -36.0122        -42.98529        31.77394             -200               0             -200               0
1.93536                -1.542697       -36.45554        -42.77687         26.6376             -200               0             -200               0
1.94297                 -1.59664       -36.90595        -42.57259        21.48124             -200               0             -200               0
1.95057                -1.652576       -37.36366        -42.37247        16.30563             -200               0             -200               0
1.95817                -1.710598       -37.82889        -42.17655        11.11154             -200               0             -200               0
1.96578                -1.770806       -38.30187        -41.98486         5.89971             -200               0             -200               0
1.97338                -1.833308       -38.78285        -41.79742       0.6708383             -200               0             -200               0
1.98099                -1.898222       -39.27207        -41.61423       -4.574381             -200               0             -200               0
1.98859                -1.965679       -39.76976        -41.43533       -9.835284             -200               0             -200               0
1.9962                 -2.035818       -40.27616        -41.26072       -15.11123             -200               0             -200               0
2.0038                 -2.108794       -40.79148         -41.0904        -20.4016             -200               0             -200               0
2.01141                -2.184767       -41.31593        -40.92439       -25.70578             -200               0             -200               0
2.01901                -2.263918       -41.84966         -40.7627       -31.02322             -200               0             -200               0
2.02662                -2.346438       -42.39285        -40.60532       -36.35333             -200               0             -200               0
2.03422                -2.432533       -42.94557        -40.45225        -41.6956             -200               0             -200               0
2.04183                -2.522423        -43.5079        -40.30351       -47.04949             -200               0             -200               0
2.04943                -2.616343       -44.07984        -40.15908       -52.41452             -200               0             -200               0
2.05703                -2.714545       -44.66135        -40.01896       -57.79018             -200               0             -200               0
2.06464                -2.817298       -45.25232        -39.88317       -63.17602             -200               0             -200               0
2.07224                -2.924886       -45.85254        -39.75168       -68.57159             -200               0             -200               0
2.07985                -3.037608       -46.46175         -39.6245       -73.97644             -200               0             -200               0
2.08745                -3.155789       -47.07957        -39.50163       -79.39016             -200               0             -200               0
2.09506                -3.279764       -47.70555        -39.38306       -84.81235             -200               0             -200               0
2.10266                -3.409893       -48.33911        -39.26879        -90.2426             -200               0             -200               0
2.11027                -3.546556       -48.97956        -39.15881       -95.68054             -200               0             -200               0
2.11787                -3.690151       -49.62605        -39.05313       -101.1258             -200               0             -200               0
2.12548                -3.841106       -50.27764        -38.95174        -106.578             -200               0             -200               0
2.13308                -3.999867       -50.93317        -38.85463       -112.0368             -200               0             -200               0
2.14068                -4.166909       -51.59135        -38.76181       -117.5019             -200               0             -200               0
2.14829                -4.342736       -52.25067        -38.67327        -122.973             -200               0             -200               0
2.15589                -4.527882       -52.90942          -38.589       -128.4497             -200               0             -200               0
2.1635                 -4.722916       -53.56565        -38.50902       -133.9317             -200               0             -200               0
2.1711                 -4.928442       -54.21713        -38.43332       -139.4187             -200               0             -200               0
2.17871                -5.145107       -54.86134         -38.3619       -144.9104             -200               0             -200               0
2.18631                  -5.3736       -55.49541        -38.29475       -150.4066             -200               0             -200               0
2.19392                -5.614665       -56.11606        -38.23189       -155.9069             -200               0             -200               0
2.20152                -5.869098       -56.71956        -38.17332       -161.4111             -200               0             -200               0
2.20913                -6.137759       -57.30165        -38.11903        -166.919             -200               0             -200               0
2.21673                -6.421577       -57.85741        -38.06903       -172.4301             -200               0             -200               0
2.22433                 -6.72156       -58.38121        -38.02333       -177.9444             -200               0             -200               0
2.23194                -7.038801        -58.8665        -37.98194        176.5386             -200               0             -200               0
2.23954                 -7.37449       -59.30568        -37.94485        171.0189             -200               0             -200               0
2.24715                -7.729925       -59.68983        -37.91209         165.497             -200               0             -200               0
2.25475                -8.106521       -60.00843        -37.88365        159.9729             -200               0             -200               0
2.26236                -8.505818       -60.24902        -37.85955         154.447             -200               0             -200               0
2.26996                -8.929487       -60.39669         -37.8398        148.9196             -200               0             -200               0
2.27757                -9.379338       -60.43346        -37.82442        143.3907             -200               0             -200               0
2.28517                -9.857299       -60.33754        -37.81341        137.8608             -200               0             -200               0
2.29278                 -10.3654        -60.0822        -37.80679          132.33             -200               0             -200               0
2.30038                -10.90571        -59.6345        -37.80458        126.7986             -200               0             -200               0
2.30798                -11.48022       -58.95348         -37.8068        121.2668             -200               0             -200               0
2.31559                -12.09063       -57.98797        -37.81346        115.7348             -200               0             -200               0
2.32319                  -12.738       -56.67372        -37.82459        110.2029             -200               0             -200               0
2.3308                 -13.42212       -54.93015        -37.84021        104.6714             -200               0             -200               0
2.3384                 -14.14049       -52.65694        -37.86034        99.14049             -200               0             -200               0
2.34601                -14.88664       -49.73158        -37.88501        93.61039             -200               0             -200               0
2.35361                -15.64756       -46.01077        -37.91425        88.08137             -200               0             -200               0
2.36122                -16.40017       -41.34106        -37.94808         82.5537             -200               0             -200               0
2.36882                -17.10732       -35.58823        -37.98654        77.02764             -200               0             -200               0
2.37643                -17.71566       -28.69522        -38.02965        71.50345             -200               0             -200               0
2.38403                 -18.1599       -20.76534        -38.07745        65.98141             -200               0             -200               0
2.39163                 -18.3785       -12.13049        -38.12999        60.46179             -200               0             -200               0
2.39924                -18.33752       -3.327295        -38.18729        54.94488             -200               0             -200               0
2.40684                -18.04742        5.053415         -38.2494        49.43098             -200               0             -200               0
2.41445                -17.55757        12.55628        -38.31636        43.92038             -200               0             -200               0
2.42205                -16.93387        18.95748        -38.38821         38.4134             -200               0             -200               0
2.42966                -16.23732        24.23723        -38.46501        32.91037             -200               0             -200               0
2.43726                -15.51388        28.49674         -38.5468        27.41162             -200               0             -200               0
2.44487                -14.79383        31.88416        -38.63365        21.91749             -200               0             -200               0
2.45247                -14.09512        34.55047        -38.72559        16.42835             -200               0             -200               0
2.46008                -13.42737        36.63004         -38.8227        10.94457             -200               0             -200               0
2.46768                -12.79495          38.235        -38.92502        5.466553             -200               0             -200               0
2.47529                -12.19911        39.45623        -39.03264    -0.005293634             -200               0             -200               0
2.48289                -11.63934        40.36628        -39.14561       -5.470538             -200               0             -200               0
2.49049                -11.11418        41.02289        -39.26401       -10.92873             -200               0             -200               0