! TOUCHSTONE file generated by CST MICROWAVE STUDIO
! Date and time: Tue Mar 18 00:00:54 2025
! Project name: oblique.cst
! Parameters = {Tilt=30; Fracture=1; B=10; D=160; F=15; Feed=2.85625; L=100; M=30; R=0.384908; S=1; Theta=270; length=57.125; wave=114.25}
! Header version: 2024
! Port assignment regex: !\s*Touchstone port\s*([0-9]+)\s*=\s*(CST MWS port|CST DES external port|CST DES block port)\s*(.+)\s* \(\"(.*)\"\)(\s*mode\s*([0-9]+))?.*
! Touchstone port assignment:
! Touchstone port 1 = CST MWS port 1 ("")
! Touchstone port 2 = CST MWS port 2 ("")
# GHz S DB R 50
1                    -0.02243403       -9.784945        -64.64396        171.6745             -200               0             -200               0
1.0066               -0.02308199       -9.870703        -64.73503         165.166             -200               0             -200               0
1.0132                 -0.023698       -9.957084        -64.86604        158.7227             -200               0             -200               0
1.0198               -0.02428356       -10.04415        -65.03971        152.3456             -200               0             -200               0
1.0264               -0.02484075       -10.13197        -65.25935         146.037             -200               0             -200               0
1.033                -0.02537634       -10.22059        -65.52906        139.8006             -200               0             -200               0
1.0396               -0.02589457       -10.31008        -65.85391        133.6422             -200               0             -200               0
1.0462               -0.02640298       -10.40048        -66.24026        127.5706             -200               0             -200               0
1.05281              -0.02690978       -10.49184        -66.69612        121.5982             -200               0             -200               0
1.05941              -0.02742183       -10.58418        -67.23181        115.7429             -200               0             -200               0
1.06601              -0.02795091       -10.67753         -67.8608        110.0312             -200               0             -200               0
1.07261              -0.02850532       -10.77191        -68.60112         104.503             -200               0             -200               0
1.07921               -0.0290938       -10.86733        -69.47752         99.2204             -200               0             -200               0
1.08581              -0.02972676       -10.96377        -70.52512        94.28501             -200               0             -200               0
1.09241              -0.03041346       -11.06123        -71.79579        89.87408             -200               0             -200               0
1.09901              -0.03116123       -11.15968        -73.36977        86.32379             -200               0             -200               0
1.10561              -0.03197766        -11.2591        -75.37751        84.34915             -200               0             -200               0
1.11221              -0.03287069       -11.35945        -78.03442        85.73009             -200               0             -200               0
1.11881              -0.03384313       -11.46069        -81.59057        95.83612             -200               0             -200               0
1.12541              -0.03490055       -11.56276        -84.79946        129.0503             -200               0             -200               0
1.13201              -0.03604503       -11.66563        -82.57247        170.3786             -200               0             -200               0
1.13861              -0.03727666       -11.76924        -78.46857       -174.1004             -200               0             -200               0
1.14521              -0.03859545       -11.87355        -75.22887       -170.7423             -200               0             -200               0
1.15182              -0.03999931        -11.9785        -72.72584       -171.7662             -200               0             -200               0
1.15842              -0.04148399       -12.08405        -70.71311       -174.7005             -200               0             -200               0
1.16502              -0.04304449       -12.19017        -69.03733       -178.6093             -200               0             -200               0
1.17162              -0.04467563       -12.29682        -67.60528         176.929             -200               0             -200               0
1.17822              -0.04636936       -12.40399        -66.35759        172.1301             -200               0             -200               0
1.18482              -0.04811729       -12.51166        -65.25457        167.1157             -200               0             -200               0
1.19142              -0.04991174       -12.61982        -64.26851        161.9594             -200               0             -200               0
1.19802              -0.05174347        -12.7285        -63.37938        156.7086             -200               0             -200               0
1.20462               -0.0536036        -12.8377        -62.57226        151.3953             -200               0             -200               0
1.21122              -0.05548313       -12.94746        -61.83575        146.0421             -200               0             -200               0
1.21782              -0.05737331       -13.05782        -61.16098        140.6656             -200               0             -200               0
1.22442              -0.05926743       -13.16883        -60.54089        135.2784             -200               0             -200               0
1.23102              -0.06115966       -13.28056        -59.96981        129.8903             -200               0             -200               0
1.23762              -0.06304309       -13.39307        -59.44309        124.5096             -200               0             -200               0
1.24422              -0.06491476       -13.50644        -58.95691         119.143             -200               0             -200               0
1.25083              -0.06677264       -13.62075        -58.50807        113.7964             -200               0             -200               0
1.25743               -0.0686152        -13.7361        -58.09387        108.4753             -200               0             -200               0
1.26403              -0.07044427       -13.85256        -57.71205        103.1847             -200               0             -200               0
1.27063              -0.07226354       -13.97022        -57.36064        97.92927             -200               0             -200               0
1.27723              -0.07407625       -14.08918        -57.03796        92.71382             -200               0             -200               0
1.28383               -0.0758893       -14.20952        -56.74253        87.54306             -200               0             -200               0
1.29043              -0.07771188       -14.33131        -56.47307         82.4218             -200               0             -200               0
1.29703              -0.07955199       -14.45462        -56.22844        77.35508             -200               0             -200               0
1.30363              -0.08142129       -14.57951        -56.00761        72.34815             -200               0             -200               0
1.31023              -0.08333102       -14.70605        -55.80964        67.40663             -200               0             -200               0
1.31683               -0.0852942       -14.83426        -55.63366        62.53649             -200               0             -200               0
1.32343              -0.08732284       -14.96418        -55.47882        57.74415             -200               0             -200               0
1.33003              -0.08943145       -15.09582         -55.3443        53.03653             -200               0             -200               0
1.33663              -0.09163225        -15.2292        -55.22928        48.42111             -200               0             -200               0
1.34323               -0.0939378       -15.36431        -55.13287        43.90591             -200               0             -200               0
1.34984              -0.09635914       -15.50113        -55.05414         39.4996             -200               0             -200               0
1.35644              -0.09890826       -15.63964        -54.99203        35.21144             -200               0             -200               0
1.36304               -0.1015949        -15.7798        -54.94536        31.05128             -200               0             -200               0
1.36964               -0.1044257       -15.92157        -54.91276        27.02949             -200               0             -200               0
1.37624               -0.1074087       -16.06491        -54.89262        23.15683             -200               0             -200               0
1.38284               -0.1105471       -16.20977        -54.88305        19.44426             -200               0             -200               0
1.38944               -0.1138454       -16.35609        -54.88183        15.90261             -200               0             -200               0
1.39604               -0.1173026       -16.50384        -54.88636        12.54215             -200               0             -200               0
1.40264               -0.1209193       -16.65295        -54.89361        9.372059             -200               0             -200               0
1.40924               -0.1246917        -16.8034        -54.90008         6.39962             -200               0             -200               0
1.41584               -0.1286166       -16.95514        -54.90185        3.629358             -200               0             -200               0
1.42244               -0.1326877       -17.10815        -54.89455        1.062005             -200               0             -200               0
1.42904               -0.1368968       -17.26243        -54.87351       -1.306589             -200               0             -200               0
1.43564               -0.1412359       -17.41795         -54.8339       -3.486471             -200               0             -200               0
1.44224               -0.1456975       -17.57475         -54.7709       -5.494361             -200               0             -200               0
1.44884               -0.1502718       -17.73285        -54.68008       -7.353988             -200               0             -200               0
1.45545               -0.1549496       -17.89228         -54.5576       -9.095798             -200               0             -200               0
1.46205               -0.1597216       -18.05312         -54.4006       -10.75592             -200               0             -200               0
1.46865               -0.1645799       -18.21541         -54.2074       -12.37442             -200               0             -200               0
1.47525               -0.1695177       -18.37927        -53.97768       -13.99295             -200               0             -200               0
1.48185               -0.1745291       -18.54478        -53.71248       -15.65226             -200               0             -200               0
1.48845               -0.1796109       -18.71205        -53.41408       -17.38971             -200               0             -200               0
1.49505               -0.1847606       -18.88122         -53.0858       -19.23739             -200               0             -200               0
1.50165               -0.1899787        -19.0524        -52.73168       -21.22081             -200               0             -200               0
1.50825               -0.1952672       -19.22572        -52.35617       -23.35847             -200               0             -200               0
1.51485                -0.200633       -19.40135        -51.96384       -25.66196             -200               0             -200               0
1.52145               -0.2060829        -19.5794        -51.55913        -28.1367             -200               0             -200               0
1.52805               -0.2116279       -19.76003         -51.1462       -30.78285             -200               0             -200               0
1.53465                -0.217281       -19.94336        -50.72879       -33.59643             -200               0             -200               0
1.54125               -0.2230578       -20.12953        -50.31018       -36.57035             -200               0             -200               0
1.54785               -0.2289761       -20.31865        -49.89317       -39.69537             -200               0             -200               0
1.55446               -0.2350553       -20.51083        -49.48012       -42.96086             -200               0             -200               0
1.56106               -0.2413181       -20.70616        -49.07293       -46.35547             -200               0             -200               0
1.56766               -0.2477868       -20.90473        -48.67316       -49.86754             -200               0             -200               0
1.57426               -0.2544851        -21.1066        -48.28202        -53.4855             -200               0             -200               0
1.58086               -0.2614382       -21.31182        -47.90045       -57.19805             -200               0             -200               0
1.58746               -0.2686702       -21.52042        -47.52914       -60.99438             -200               0             -200               0
1.59406               -0.2762067       -21.73242        -47.16859       -64.86415             -200               0             -200               0
1.60066               -0.2840703       -21.94783        -46.81912       -68.79764             -200               0             -200               0
1.60726                -0.292286       -22.16661        -46.48092       -72.78568             -200               0             -200               0
1.61386               -0.3008739       -22.38876        -46.15408       -76.81969             -200               0             -200               0
1.62046               -0.3098546       -22.61422        -45.83855       -80.89161             -200               0             -200               0
1.62706               -0.3192462       -22.84296        -45.53425        -84.9939             -200               0             -200               0
1.63366               -0.3290641       -23.07491        -45.24099        -89.1195             -200               0             -200               0
1.64026               -0.3393227       -23.31002        -44.95854       -93.26177             -200               0             -200               0
1.64686               -0.3500318       -23.54823        -44.68662       -97.41449             -200               0             -200               0
1.65347               -0.3612002       -23.78949        -44.42488       -101.5718             -200               0             -200               0
1.66007               -0.3728354       -24.03373        -44.17296       -105.7282             -200               0             -200               0
1.66667               -0.3849384       -24.28092        -43.93043       -109.8785             -200               0             -200               0
1.67327                -0.397513       -24.53102        -43.69682       -114.0178             -200               0             -200               0
1.67987                -0.410558       -24.78403        -43.47164       -118.1415             -200               0             -200               0
1.68647               -0.4240719       -25.03993        -43.25435       -122.2454             -200               0             -200               0
1.69307               -0.4380512       -25.29874        -43.04436       -126.3254             -200               0             -200               0
1.69967               -0.4524931        -25.5605        -42.84105       -130.3779             -200               0             -200               0
1.70627               -0.4673923       -25.82527        -42.64376       -134.3995             -200               0             -200               0
1.71287                -0.482745       -26.09314        -42.45178       -138.3872             -200               0             -200               0
1.71947               -0.4985499       -26.36421        -42.26436       -142.3384             -200               0             -200               0
1.72607               -0.5148031       -26.63862        -42.08072       -146.2509             -200               0             -200               0
1.73267               -0.5315068        -26.9165        -41.90005       -150.1229             -200               0             -200               0
1.73927                -0.548664       -27.19805        -41.72148       -153.9531             -200               0             -200               0
1.74587               -0.5662792       -27.48345        -41.54413        -157.741             -200               0             -200               0
1.75248               -0.5843614       -27.77292         -41.3671       -161.4863             -200               0             -200               0
1.75908               -0.6029247       -28.06667        -41.18947       -165.1896             -200               0             -200               0
1.76568               -0.6219855       -28.36497        -41.01034        -168.852             -200               0             -200               0
1.77228               -0.6415639       -28.66805        -40.82879       -172.4755             -200               0             -200               0
1.77888               -0.6616891       -28.97616        -40.64394       -176.0627             -200               0             -200               0
1.78548               -0.6823898       -29.28957        -40.45497       -179.6169             -200               0             -200               0
1.79208               -0.7037031       -29.60854        -40.26109         176.858             -200               0             -200               0
1.79868               -0.7256691        -29.9333        -40.06159        173.3571             -200               0             -200               0
1.80528               -0.7483325       -30.26411        -39.85586        169.8754             -200               0             -200               0
1.81188                -0.771745       -30.60121        -39.64337         166.407             -200               0             -200               0
1.81848               -0.7959591        -30.9448        -39.42374        162.9458             -200               0             -200               0
1.82508               -0.8210351       -31.29509        -39.19669        159.4854             -200               0             -200               0
1.83168                -0.847033       -31.65225        -38.96206         156.019             -200               0             -200               0
1.83828               -0.8740196       -32.01645        -38.71985        152.5402             -200               0             -200               0
1.84488               -0.9020622       -32.38781        -38.47017        149.0423             -200               0             -200               0
1.85149               -0.9312313       -32.76647        -38.21325        145.5192             -200               0             -200               0
1.85809               -0.9615994       -33.15251        -37.94945        141.9648             -200               0             -200               0
1.86469               -0.9932407       -33.54599        -37.67922        138.3737             -200               0             -200               0
1.87129                 -1.02623       -33.94696         -37.4031         134.741             -200               0             -200               0
1.87789                -1.060644       -34.35546        -37.12169        131.0623             -200               0             -200               0
1.88449                -1.096559       -34.77147        -36.83566         127.334             -200               0             -200               0
1.89109                -1.134051       -35.19501        -36.54571        123.5528             -200               0             -200               0
1.89769                -1.173198       -35.62604        -36.25256        119.7165             -200               0             -200               0
1.90429                -1.214077       -36.06452        -35.95695        115.8232             -200               0             -200               0
1.91089                -1.256765       -36.51042         -35.6596        111.8715             -200               0             -200               0
1.91749                 -1.30134       -36.96368        -35.36121        107.8609             -200               0             -200               0
1.92409                 -1.34788       -37.42425        -35.06249        103.7912             -200               0             -200               0
1.93069                -1.396463       -37.89209        -34.76409         99.6624             -200               0             -200               0
1.93729                -1.447169       -38.36713        -34.46662        95.47528             -200               0             -200               0
1.94389                 -1.50008       -38.84934        -34.17068        91.23071             -200               0             -200               0
1.9505                 -1.555278       -39.33867        -33.87679        86.92989             -200               0             -200               0
1.9571                 -1.612852       -39.83511        -33.58546        82.57424             -200               0             -200               0
1.9637                 -1.672892       -40.33863        -33.29714        78.16534             -200               0             -200               0
1.9703                 -1.735489       -40.84922        -33.01226        73.70492             -200               0             -200               0
1.9769                 -1.800747       -41.36686        -32.73117        69.19483             -200               0             -200               0
1.9835                 -1.868771        -41.8916        -32.45422        64.63696             -200               0             -200               0
1.9901                 -1.939673       -42.42341        -32.18171        60.03325             -200               0             -200               0
1.9967                 -2.013578       -42.96232        -31.91389        55.38567             -200               0             -200               0
2.0033                 -2.090613       -43.50836        -31.65102        50.69619             -200               0             -200               0
2.0099                  -2.17092       -44.06152        -31.39329        45.96676             -200               0             -200               0
2.0165                 -2.254652       -44.62181        -31.14089        41.19932             -200               0             -200               0
2.0231                 -2.341972       -45.18922        -30.89396        36.39573             -200               0             -200               0
2.0297                 -2.433058       -45.76369        -30.65265        31.55786             -200               0             -200               0
2.0363                 -2.528099       -46.34518        -30.41708        26.68751             -200               0             -200               0
2.0429                 -2.627301       -46.93357        -30.18733        21.78641             -200               0             -200               0
2.0495                 -2.730885        -47.5287        -29.96349        16.85626             -200               0             -200               0
2.05611                -2.839089       -48.13035        -29.74564        11.89868             -200               0             -200               0
2.06271                -2.952167       -48.73826        -29.53382        6.915256             -200               0             -200               0
2.06931                -3.070388       -49.35207        -29.32809        1.907493             -200               0             -200               0
2.07591                -3.194045       -49.97131        -29.12847       -3.123152             -200               0             -200               0
2.08251                -3.323445       -50.59543          -28.935       -8.175277             -200               0             -200               0
2.08911                -3.458916       -51.22378         -28.7477       -13.24754             -200               0             -200               0
2.09571                -3.600808       -51.85554        -28.56658       -18.33863             -200               0             -200               0
2.10231                -3.749489       -52.48977        -28.39164       -23.44733             -200               0             -200               0
2.10891                -3.905349       -53.12535         -28.2229       -28.57242             -200               0             -200               0
2.11551                -4.068804         -53.761        -28.06036       -33.71276             -200               0             -200               0
2.12211                -4.240289       -54.39521          -27.904       -38.86724             -200               0             -200               0
2.12871                -4.420266       -55.02627        -27.75383       -44.03481             -200               0             -200               0
2.13531                -4.609221       -55.65222        -27.60982       -49.21443             -200               0             -200               0
2.14191                -4.807666        -56.2708        -27.47198        -54.4051             -200               0             -200               0
2.14851                -5.016144       -56.87945        -27.34029       -59.60589             -200               0             -200               0
2.15512                -5.235226       -57.47527        -27.21474       -64.81585             -200               0             -200               0
2.16172                -5.465515       -58.05496        -27.09531       -70.03409             -200               0             -200               0
2.16832                -5.707644       -58.61476        -26.98198       -75.25974             -200               0             -200               0
2.17492                -5.962287       -59.15039        -26.87474       -80.49196             -200               0             -200               0
2.18152                -6.230149       -59.65701        -26.77357       -85.72992             -200               0             -200               0
2.18812                -6.511978       -60.12907        -26.67846       -90.97282             -200               0             -200               0
2.19472                -6.808559       -60.56026        -26.58938       -96.21988             -200               0             -200               0
2.20132                -7.120719       -60.94331        -26.50633       -101.4703             -200               0             -200               0
2.20792                 -7.44932        -61.2699        -26.42928       -106.7234             -200               0             -200               0
2.21452                -7.795266       -61.53039        -26.35822       -111.9784             -200               0             -200               0
2.22112                -8.159486       -61.71365        -26.29313       -117.2345             -200               0             -200               0
2.22772                -8.542929       -61.80671          -26.234       -122.4911             -200               0             -200               0
2.23432                -8.946544        -61.7944        -26.18081       -127.7474             -200               0             -200               0
2.24092                -9.371249       -61.65899        -26.13354       -133.0028             -200               0             -200               0
2.24752                -9.817882       -61.37954        -26.09219       -138.2565             -200               0             -200               0
2.25413                -10.28713       -60.93138        -26.05674       -143.5078             -200               0             -200               0
2.26073                -10.77944       -60.28531        -26.02717        -148.756             -200               0             -200               0
2.26733                 -11.2948       -59.40681        -26.00347       -154.0004             -200               0             -200               0
2.27393                -11.83259       -58.25519        -25.98562       -159.2404             -200               0             -200               0
2.28053                -12.39116       -56.78286        -25.97362       -164.4752             -200               0             -200               0
2.28713                -12.96738       -54.93494        -25.96746       -169.7041             -200               0             -200               0
2.29373                -13.55597       -52.64977        -25.96711       -174.9264             -200               0             -200               0