! TOUCHSTONE file generated by CST MICROWAVE STUDIO
! Date and time: Tue Mar 18 00:02:19 2025
! Project name: oblique.cst
! Parameters = {Tilt=40; Fracture=1; B=10; D=160; F=15; Feed=2.85625; L=100; M=50; R=0.384908; S=2; Theta=180; length=57.125; wave=114.25}
! Header version: 2024
! Port assignment regex: !\s*Touchstone port\s*([0-9]+)\s*=\s*(CST MWS port|CST DES external port|CST DES block port)\s*(.+)\s* \(\"(.*)\"\)(\s*mode\s*([0-9]+))?.*
! Touchstone port assignment:
! Touchstone port 1 = CST MWS port 1 ("")
! Touchstone port 2 = CST MWS port 2 ("")
# GHz S DB R 50
1                    -0.02075956       -9.802642        -67.53818        161.8786             -200               0             -200               0
1.0066               -0.02151021       -9.890144        -67.49484        156.1427             -200               0             -200               0
1.0132               -0.02226331       -9.978174        -67.48254        150.5029             -200               0             -200               0
1.0198               -0.02301772       -10.06676        -67.50177         144.966             -200               0             -200               0
1.0264               -0.02377378       -10.15594        -67.55316        139.5411             -200               0             -200               0
1.033                -0.02453073       -10.24575        -67.63753        134.2392             -200               0             -200               0
1.0396               -0.02529082       -10.33621        -67.75583        129.0744             -200               0             -200               0
1.0462               -0.02605389       -10.42736        -67.90914        124.0638             -200               0             -200               0
1.05281              -0.02682271       -10.51923        -68.09863        119.2287             -200               0             -200               0
1.05941               -0.0276007       -10.61185        -68.32554        114.5955             -200               0             -200               0
1.06601               -0.0283902       -10.70525        -68.59103        110.1969             -200               0             -200               0
1.07261              -0.02919631       -10.79945        -68.89608        106.0736             -200               0             -200               0
1.07921              -0.03002155       -10.89449        -69.24116         102.276             -200               0             -200               0
1.08581              -0.03087061       -10.99036        -69.62585        98.86697             -200               0             -200               0
1.09241              -0.03174884        -11.0871        -70.04811        95.92354             -200               0             -200               0
1.09901              -0.03266115        -11.1847         -70.5032        93.53912             -200               0             -200               0
1.10561              -0.03361152       -11.28318        -70.98205        91.82312             -200               0             -200               0
1.11221              -0.03460418       -11.38253          -71.469        90.89576             -200               0             -200               0
1.11881              -0.03564427       -11.48276        -71.93903          90.873             -200               0             -200               0
1.12541              -0.03673576       -11.58385        -72.35553        91.83529             -200               0             -200               0
1.13201              -0.03788195        -11.6858        -72.67059        93.77696             -200               0             -200               0
1.13861              -0.03908542        -11.7886        -72.83125        96.54788             -200               0             -200               0
1.14521              -0.04034967       -11.89223        -72.79327        99.82397             -200               0             -200               0
1.15182              -0.04167523       -11.99667        -72.53763        103.1521             -200               0             -200               0
1.15842              -0.04306418       -12.10192        -72.07894        106.0701             -200               0             -200               0
1.16502              -0.04451705       -12.20795        -71.45881        108.2326             -200               0             -200               0
1.17162              -0.04603173       -12.31475        -70.72979        109.4674             -200               0             -200               0
1.17822              -0.04760914       -12.42231        -69.94077        109.7534             -200               0             -200               0
1.18482              -0.04924704       -12.53061        -69.12977        109.1635             -200               0             -200               0
1.19142              -0.05094204       -12.63965        -68.32302        107.8119             -200               0             -200               0
1.19802               -0.0526931       -12.74943        -67.53702        105.8201             -200               0             -200               0
1.20462              -0.05449654       -12.85995        -66.78136        103.3003             -200               0             -200               0
1.21122              -0.05634887       -12.97122        -66.06098         100.349             -200               0             -200               0
1.21782              -0.05824597       -13.08324        -65.37797        97.04677             -200               0             -200               0
1.22442              -0.06018463       -13.19603        -64.73264        93.45925             -200               0             -200               0
1.23102              -0.06216124       -13.30963        -64.12432           89.64             -200               0             -200               0
1.23762              -0.06417355       -13.42405        -63.55179        85.63255             -200               0             -200               0
1.24422              -0.06621755       -13.53934        -63.01356        81.47245             -200               0             -200               0
1.25083              -0.06829119       -13.65553        -62.50804        77.18897             -200               0             -200               0
1.25743              -0.07039257       -13.77267        -62.03366        72.80637             -200               0             -200               0
1.26403              -0.07252137        -13.8908        -61.58889        68.34497             -200               0             -200               0
1.27063              -0.07467751       -14.00998        -61.17231        63.82202             -200               0             -200               0
1.27723              -0.07686083       -14.13026        -60.78257         59.2523             -200               0             -200               0
1.28383              -0.07907473       -14.25169        -60.41844        54.64863             -200               0             -200               0
1.29043              -0.08131992       -14.37434        -60.07877        50.02235             -200               0             -200               0
1.29703              -0.08360088       -14.49824        -59.76251        45.38356             -200               0             -200               0
1.30363              -0.08592357       -14.62346         -59.4687        40.74143             -200               0             -200               0
1.31023              -0.08829085       -14.75005        -59.19643         36.1044             -200               0             -200               0
1.31683              -0.09071164       -14.87805        -58.94485        31.48038             -200               0             -200               0
1.32343               -0.0931907        -15.0075        -58.71317        26.87686             -200               0             -200               0
1.33003              -0.09573713       -15.13845        -58.50064        22.30104             -200               0             -200               0
1.33663              -0.09835866       -15.27091        -58.30651        17.75995             -200               0             -200               0
1.34323               -0.1010633       -15.40493        -58.13006        13.26052             -200               0             -200               0
1.34984               -0.1038593       -15.54051        -57.97059        8.809648             -200               0             -200               0
1.35644               -0.1067557       -15.67767        -57.82734        4.414252             -200               0             -200               0
1.36304               -0.1097618       -15.81642        -57.69955      0.08131846             -200               0             -200               0
1.36964               -0.1128844       -15.95677        -57.58641       -4.182076             -200               0             -200               0
1.37624               -0.1161302       -16.09869        -57.48705       -8.368757             -200               0             -200               0
1.38284               -0.1195081        -16.2422        -57.40051       -12.47146             -200               0             -200               0
1.38944               -0.1230234       -16.38727        -57.32574       -16.48289             -200               0             -200               0
1.39604               -0.1266813        -16.5339        -57.26155       -20.39574             -200               0             -200               0
1.40264               -0.1304867       -16.68205        -57.20661       -24.20284             -200               0             -200               0
1.40924               -0.1344433       -16.83173        -57.15945       -27.89728             -200               0             -200               0
1.41584               -0.1385532       -16.98291        -57.11839       -31.47259             -200               0             -200               0
1.42244               -0.1428181       -17.13557        -57.08155       -34.92301             -200               0             -200               0
1.42904               -0.1472389        -17.2897        -57.04685       -38.24375             -200               0             -200               0
1.43564               -0.1518155        -17.4453        -57.01201       -41.43136             -200               0             -200               0
1.44224               -0.1565472       -17.60236        -56.97453       -44.48414             -200               0             -200               0
1.44884               -0.1614321       -17.76088        -56.93176       -47.40251             -200               0             -200               0
1.45545               -0.1664687       -17.92087        -56.88093       -50.18949             -200               0             -200               0
1.46205               -0.1716542       -18.08234        -56.81921       -52.85102             -200               0             -200               0
1.46865                -0.176986       -18.24533        -56.74382       -55.39625             -200               0             -200               0
1.47525               -0.1824627       -18.40986        -56.65213       -57.83769             -200               0             -200               0
1.48185               -0.1880811       -18.57597        -56.54177        -60.1911             -200               0             -200               0
1.48845               -0.1938402        -18.7437        -56.41079        -62.4752             -200               0             -200               0
1.49505               -0.1997393       -18.91312        -56.25773        -64.7111             -200               0             -200               0
1.50165               -0.2057777       -19.08429        -56.08173       -66.92151             -200               0             -200               0
1.50825               -0.2119559       -19.25727        -55.88257       -69.12981             -200               0             -200               0
1.51485               -0.2182761       -19.43214        -55.66068       -71.35903             -200               0             -200               0
1.52145               -0.2247414       -19.60897        -55.41712        -73.6309             -200               0             -200               0
1.52805               -0.2313563       -19.78784        -55.15347       -75.96497             -200               0             -200               0
1.53465               -0.2381264       -19.96884        -54.87174       -78.37797             -200               0             -200               0
1.54125               -0.2450589       -20.15204        -54.57426       -80.88346             -200               0             -200               0
1.54785               -0.2521634       -20.33753        -54.26353       -83.49163             -200               0             -200               0
1.55446               -0.2594488       -20.52538        -53.94215        -86.2094             -200               0             -200               0
1.56106               -0.2669273       -20.71568        -53.61265       -89.04062             -200               0             -200               0
1.56766               -0.2746101       -20.90847        -53.27748       -91.98647             -200               0             -200               0
1.57426               -0.2825113       -21.10383         -52.9389       -95.04579             -200               0             -200               0
1.58086               -0.2906453       -21.30182          -52.599       -98.21561             -200               0             -200               0
1.58746               -0.2990259       -21.50247        -52.25962       -101.4914             -200               0             -200               0
1.59406               -0.3076691       -21.70584        -51.92239       -104.8678             -200               0             -200               0
1.60066               -0.3165906       -21.91194        -51.58869       -108.3383             -200               0             -200               0
1.60726               -0.3258047       -22.12081        -51.25972       -111.8962             -200               0             -200               0
1.61386               -0.3353283       -22.33246        -50.93649       -115.5344             -200               0             -200               0
1.62046               -0.3451738        -22.5469        -50.61978       -119.2456             -200               0             -200               0
1.62706               -0.3553561       -22.76412        -50.31027       -123.0228             -200               0             -200               0
1.63366               -0.3658879       -22.98413        -50.00847       -126.8588             -200               0             -200               0
1.64026               -0.3767811       -23.20692        -49.71476       -130.7468             -200               0             -200               0
1.64686               -0.3880469       -23.43247        -49.42942       -134.6799             -200               0             -200               0
1.65347               -0.3996934       -23.66078        -49.15264       -138.6519             -200               0             -200               0
1.66007               -0.4117306       -23.89184         -48.8845       -142.6565             -200               0             -200               0
1.66667               -0.4241642       -24.12564        -48.62504       -146.6878             -200               0             -200               0
1.67327               -0.4370018       -24.36218         -48.3742       -150.7402             -200               0             -200               0
1.67987               -0.4502445       -24.60146        -48.13188       -154.8081             -200               0             -200               0
1.68647                -0.463899        -24.8435        -47.89792       -158.8865             -200               0             -200               0
1.69307                -0.477966       -25.08832         -47.6721       -162.9705             -200               0             -200               0
1.69967               -0.4924491       -25.33596        -47.45416       -167.0554             -200               0             -200               0
1.70627               -0.5073487       -25.58646         -47.2438       -171.1368             -200               0             -200               0
1.71287               -0.5226668       -25.83989        -47.04067       -175.2105             -200               0             -200               0
1.71947               -0.5384059       -26.09632        -46.84438       -179.2724             -200               0             -200               0
1.72607               -0.5545683       -26.35584        -46.65449         176.681             -200               0             -200               0
1.73267               -0.5711577       -26.61856        -46.47054        172.6532             -200               0             -200               0
1.73927               -0.5881791        -26.8846        -46.29201        168.6475             -200               0             -200               0
1.74587               -0.6056383       -27.15409        -46.11834        164.6667             -200               0             -200               0
1.75248               -0.6235446       -27.42718        -45.94896        160.7134             -200               0             -200               0
1.75908               -0.6419079       -27.70402        -45.78322        156.7899             -200               0             -200               0
1.76568               -0.6607434        -27.9848        -45.62047         152.898             -200               0             -200               0
1.77228               -0.6800671       -28.26969        -45.46001        149.0392             -200               0             -200               0
1.77888               -0.6998967       -28.55886        -45.30112        145.2145             -200               0             -200               0
1.78548               -0.7202553       -28.85251        -45.14305        141.4245             -200               0             -200               0
1.79208               -0.7411688       -29.15083        -44.98505        137.6693             -200               0             -200               0
1.79868               -0.7626663         -29.454        -44.82635        133.9483             -200               0             -200               0
1.80528                -0.784779       -29.76221        -44.66616        130.2604             -200               0             -200               0
1.81188               -0.8075437       -30.07565        -44.50374        126.6042             -200               0             -200               0
1.81848               -0.8309974       -30.39447        -44.33836        122.9772             -200               0             -200               0
1.82508               -0.8551815       -30.71885         -44.1693        119.3768             -200               0             -200               0
1.83168               -0.8801398       -31.04895        -43.99592        115.7995             -200               0             -200               0
1.83828               -0.9059184        -31.3849        -43.81762        112.2413             -200               0             -200               0
1.84488               -0.9325654       -31.72681        -43.63388         108.698             -200               0             -200               0
1.85149                -0.960131       -32.07483        -43.44426        105.1645             -200               0             -200               0
1.85809               -0.9886666       -32.42903        -43.24843        101.6358             -200               0             -200               0
1.86469                -1.018224       -32.78951        -43.04613        98.10651             -200               0             -200               0
1.87129                -1.048856       -33.15634        -42.83723        94.57095             -200               0             -200               0
1.87789                -1.080617       -33.52959        -42.62169        91.02353             -200               0             -200               0
1.88449                -1.113561        -33.9093        -42.39958         87.4587             -200               0             -200               0
1.89109                -1.147742       -34.29553        -42.17109        83.87105             -200               0             -200               0
1.89769                -1.183213        -34.6883        -41.93649        80.25545             -200               0             -200               0
1.90429                 -1.22003       -35.08767        -41.69612        76.60707             -200               0             -200               0
1.91089                -1.258243       -35.49366        -41.45043        72.92153             -200               0             -200               0
1.91749                -1.297908       -35.90631        -41.19991        69.19488             -200               0             -200               0
1.92409                -1.339079       -36.32568        -40.94512        65.42367             -200               0             -200               0
1.93069                 -1.38181       -36.75182        -40.68663        61.60498             -200               0             -200               0
1.93729                -1.426155        -37.1848        -40.42507         57.7364             -200               0             -200               0
1.94389                -1.472172        -37.6247        -40.16106        53.81604             -200               0             -200               0
1.9505                 -1.519917       -38.07162        -39.89524        49.84251             -200               0             -200               0
1.9571                 -1.569452        -38.5257        -39.62822        45.81486             -200               0             -200               0
1.9637                 -1.620839       -38.98706        -39.36063        41.73261             -200               0             -200               0
1.9703                 -1.674148       -39.45588        -39.09306        37.59567             -200               0             -200               0
1.9769                 -1.729451       -39.93235        -38.82607        33.40425             -200               0             -200               0
1.9835                 -1.786826       -40.41669        -38.56021        29.15893             -200               0             -200               0
1.9901                 -1.846358       -40.90914        -38.29597        24.86053             -200               0             -200               0
1.9967                 -1.908141       -41.40994        -38.03383        20.51008             -200               0             -200               0
2.0033                 -1.972278       -41.91939        -37.77422        16.10882             -200               0             -200               0
2.0099                 -2.038879       -42.43778        -37.51755        11.65813             -200               0             -200               0
2.0165                 -2.108069       -42.96541        -37.26419        7.159493             -200               0             -200               0
2.0231                 -2.179983       -43.50261        -37.01447        2.614512             -200               0             -200               0
2.0297                 -2.254768       -44.04968        -36.76869        -1.97517             -200               0             -200               0
2.0363                 -2.332587       -44.60695        -36.52713       -6.607859             -200               0             -200               0
2.0429                 -2.413619       -45.17471        -36.29003       -11.28184             -200               0             -200               0
2.0495                 -2.498057       -45.75325        -36.05761       -15.99538             -200               0             -200               0
2.05611                -2.586109       -46.34284        -35.83007       -20.74677             -200               0             -200               0
2.06271                -2.678006       -46.94369        -35.60757        -25.5343             -200               0             -200               0
2.06931                -2.773991       -47.55599        -35.39027       -30.35631             -200               0             -200               0
2.07591                -2.874331       -48.17987        -35.17831       -35.21113             -200               0             -200               0
2.08251                -2.979311        -48.8154        -34.97178       -40.09717             -200               0             -200               0
2.08911                -3.089234       -49.46258        -34.77081       -45.01287             -200               0             -200               0
2.09571                -3.204429       -50.12132        -34.57546       -49.95669             -200               0             -200               0
2.10231                -3.325242       -50.79144        -34.38583       -54.92717             -200               0             -200               0
2.10891                -3.452044       -51.47268        -34.20196       -59.92288             -200               0             -200               0
2.11551                 -3.58523       -52.16463        -34.02391       -64.94244             -200               0             -200               0
2.12211                -3.725217        -52.8668        -33.85173       -69.98451             -200               0             -200               0
2.12871                -3.872451       -53.57853        -33.68544       -75.04782             -200               0             -200               0
2.13531                -4.027402       -54.29903        -33.52509       -80.13112             -200               0             -200               0
2.14191                -4.190572       -55.02733         -33.3707       -85.23322             -200               0             -200               0
2.14851                -4.362489       -55.76231        -33.22228       -90.35297             -200               0             -200               0
2.15512                -4.543721       -56.50262        -33.07984       -95.48925             -200               0             -200               0
2.16172                -4.734864       -57.24671         -32.9434        -100.641             -200               0             -200               0
2.16832                 -4.93656       -57.99281        -32.81296       -105.8072             -200               0             -200               0
2.17492                 -5.14949       -58.73886        -32.68853       -110.9868             -200               0             -200               0
2.18152                -5.374385        -59.4825        -32.57011       -116.1789             -200               0             -200               0
2.18812                -5.612031       -60.22105         -32.4577       -121.3825             -200               0             -200               0
2.19472                -5.863271       -60.95142        -32.35129       -126.5968             -200               0             -200               0
2.20132                -6.129017       -61.67007        -32.25088       -131.8209             -200               0             -200               0
2.20792                -6.410258       -62.37298        -32.15647       -137.0538             -200               0             -200               0
2.21452                -6.708072       -63.05547        -32.06805       -142.2949             -200               0             -200               0
2.22112                -7.023634       -63.71217        -31.98561       -147.5432             -200               0             -200               0
2.22772                -7.358236       -64.33682        -31.90915       -152.7981             -200               0             -200               0
2.23432                -7.713298       -64.92209        -31.83867       -158.0587             -200               0             -200               0
2.24092                -8.090392       -65.45942        -31.77415       -163.3243             -200               0             -200               0
2.24752                -8.491263        -65.9386        -31.71559       -168.5942             -200               0             -200               0
2.25413                 -8.91785       -66.34743        -31.66298       -173.8677             -200               0             -200               0
2.26073                -9.372315       -66.67122        -31.61631        -179.144             -200               0             -200               0
2.26733                -9.857074       -66.89204        -31.57559        175.5776             -200               0             -200               0
2.27393                -10.37482       -66.98784         -31.5408        170.2977             -200               0             -200               0
2.28053                -10.92852       -66.93114        -31.51194         165.017             -200               0             -200               0
2.28713                -11.52147       -66.68736        -31.48901        159.7361             -200               0             -200               0
2.29373                -12.15719       -66.21237          -31.472        154.4559             -200               0             -200               0