! TOUCHSTONE file generated by CST MICROWAVE STUDIO
! Date and time: Tue Mar 18 00:02:54 2025
! Project name: oblique.cst
! Parameters = {Tilt=40; Fracture=1; B=12.5; D=160; F=15; Feed=2.85625; L=100; M=30; R=0.384908; S=1; Theta=270; length=57.125; wave=114.25}
! Header version: 2024
! Port assignment regex: !\s*Touchstone port\s*([0-9]+)\s*=\s*(CST MWS port|CST DES external port|CST DES block port)\s*(.+)\s* \(\"(.*)\"\)(\s*mode\s*([0-9]+))?.*
! Touchstone port assignment:
! Touchstone port 1 = CST MWS port 1 ("")
! Touchstone port 2 = CST MWS port 2 ("")
# GHz S DB R 50
1                    -0.02213274       -9.781097        -65.88339        172.9788             -200               0             -200               0
1.0066               -0.02278431       -9.867087        -65.94766        166.9438             -200               0             -200               0
1.0132               -0.02341293       -9.953694        -66.05082        161.0005             -200               0             -200               0
1.0198               -0.02401988       -10.04097        -66.19505        155.1561             -200               0             -200               0
1.0264               -0.02460746       -10.12898          -66.383        149.4205             -200               0             -200               0
1.033                -0.02518115       -10.21775        -66.61791        143.8068             -200               0             -200               0
1.0396               -0.02574391       -10.30735        -66.90372        138.3326             -200               0             -200               0
1.0462               -0.02630448       -10.39782         -67.2452        133.0213             -200               0             -200               0
1.05281              -0.02686766       -10.48918        -67.64817        127.9049             -200               0             -200               0
1.05941              -0.02744103       -10.58147        -68.11974        123.0266             -200               0             -200               0
1.06601              -0.02803329        -10.6747        -68.66854        118.4469             -200               0             -200               0
1.07261              -0.02865136        -10.7689        -69.30502        114.2515             -200               0             -200               0
1.07921              -0.02930447       -10.86407         -70.0416        110.5649             -200               0             -200               0
1.08581              -0.02999999       -10.96019        -70.89234        107.5728             -200               0             -200               0
1.09241              -0.03074494       -11.05728        -71.87112        105.5591             -200               0             -200               0
1.09901              -0.03154717       -11.15529         -72.9858        104.9656             -200               0             -200               0
1.10561              -0.03241205       -11.25422        -74.22129        106.4755             -200               0             -200               0
1.11221              -0.03334626       -11.35403        -75.49668        111.0601             -200               0             -200               0
1.11881              -0.03435292       -11.45469        -76.58297        119.6943             -200               0             -200               0
1.12541              -0.03543582       -11.55616        -77.06227        132.1126             -200               0             -200               0
1.13201              -0.03659619        -11.6584        -76.60146        145.3686             -200               0             -200               0
1.13861              -0.03783493       -11.76137        -75.36119        155.7433             -200               0             -200               0
1.14521              -0.03915123       -11.86503        -73.78225        161.9656             -200               0             -200               0
1.15182              -0.04054311       -11.96934        -72.17448        164.7315             -200               0             -200               0
1.15842               -0.0420077       -12.07427        -70.66617        165.0873             -200               0             -200               0
1.16502              -0.04354072       -12.17979        -69.29117        163.8337             -200               0             -200               0
1.17162              -0.04513666       -12.28588        -68.04755        161.4991             -200               0             -200               0
1.17822              -0.04678894       -12.39252        -66.92253        158.4227             -200               0             -200               0
1.18482              -0.04849195       -12.49971        -65.90153         154.825             -200               0             -200               0
1.19142              -0.05023688       -12.60744        -64.97118         150.853             -200               0             -200               0
1.19802              -0.05201763       -12.71573           -64.12        146.6075             -200               0             -200               0
1.20462              -0.05382664        -12.8246        -63.33839        142.1594             -200               0             -200               0
1.21122              -0.05565565       -12.93408        -62.61841        137.5603             -200               0             -200               0
1.21782              -0.05749844       -13.04421        -61.95347        132.8483             -200               0             -200               0
1.22442              -0.05934912       -13.15504        -61.33806        128.0526             -200               0             -200               0
1.23102              -0.06120241       -13.26662         -60.7676        123.1956             -200               0             -200               0
1.23762              -0.06305435       -13.37901        -60.23822        118.2956             -200               0             -200               0
1.24422              -0.06490127       -13.49229        -59.74664        113.3671             -200               0             -200               0
1.25083              -0.06674237       -13.60653        -59.29006        108.4223             -200               0             -200               0
1.25743              -0.06857776       -13.72181        -58.86607        103.4717             -200               0             -200               0
1.26403              -0.07040847       -13.83819        -58.47258        98.52434             -200               0             -200               0
1.27063               -0.0722376       -13.95577        -58.10779        93.58824             -200               0             -200               0
1.27723              -0.07406987       -14.07461         -57.7701        88.67079             -200               0             -200               0
1.28383              -0.07591102        -14.1948        -57.45809        83.77887             -200               0             -200               0
1.29043              -0.07776868       -14.31639        -57.17051        78.91901             -200               0             -200               0
1.29703              -0.07965205       -14.43944        -56.90622        74.09756             -200               0             -200               0
1.30363              -0.08156911       -14.56402        -56.66416        69.32076             -200               0             -200               0
1.31023              -0.08353132       -14.69016        -56.44337        64.59489             -200               0             -200               0
1.31683              -0.08554941       -14.81791        -56.24293         59.9263             -200               0             -200               0
1.32343              -0.08763553       -14.94729        -56.06194         55.3215             -200               0             -200               0
1.33003              -0.08980004       -15.07831        -55.89952         50.7872             -200               0             -200               0
1.33663               -0.0920544       -15.21098        -55.75478        46.33036             -200               0             -200               0
1.34323              -0.09440918       -15.34529        -55.62679        41.95821             -200               0             -200               0
1.34984               -0.0968756       -15.48125        -55.51455        37.67824             -200               0             -200               0
1.35644              -0.09946184       -15.61881        -55.41699        33.49824             -200               0             -200               0
1.36304               -0.1021766       -15.75797        -55.33294        29.42621             -200               0             -200               0
1.36964               -0.1050269       -15.89868        -55.26106        25.47028             -200               0             -200               0
1.37624               -0.1080178       -16.04091        -55.19986        21.63864             -200               0             -200               0
1.38284               -0.1111525       -16.18461        -55.14765         17.9393             -200               0             -200               0
1.38944               -0.1144334       -16.32976        -55.10249        14.37992             -200               0             -200               0
1.39604               -0.1178622       -16.47631        -55.06221        10.96744             -200               0             -200               0
1.40264                -0.121437       -16.62422        -55.02436        7.707739             -200               0             -200               0
1.40924               -0.1251554       -16.77347        -54.98621        4.605108             -200               0             -200               0
1.41584               -0.1290134       -16.92404        -54.94475        1.661751             -200               0             -200               0
1.42244               -0.1330068       -17.07591        -54.89675        -1.12283             -200               0             -200               0
1.42904               -0.1371284       -17.22907        -54.83884       -3.752423             -200               0             -200               0
1.43564               -0.1413717       -17.38354        -54.76752       -6.234642             -200               0             -200               0
1.44224               -0.1457294       -17.53933        -54.67941       -8.581324             -200               0             -200               0
1.44884               -0.1501942       -17.69648        -54.57129       -10.80869             -200               0             -200               0
1.45545               -0.1547582       -17.85503        -54.44037       -12.93719             -200               0             -200               0
1.46205               -0.1594157       -18.01506        -54.28439       -14.99103             -200               0             -200               0
1.46865               -0.1641594       -18.17661         -54.1018       -16.99723             -200               0             -200               0
1.47525               -0.1689843       -18.33978        -53.89187       -18.98448             -200               0             -200               0
1.48185               -0.1738869       -18.50466        -53.65473       -20.98174             -200               0             -200               0
1.48845               -0.1788652       -18.67136        -53.39134       -23.01684             -200               0             -200               0
1.49505               -0.1839187          -18.84        -53.10342       -25.11515             -200               0             -200               0
1.50165               -0.1890503       -19.01069        -52.79332       -27.29863             -200               0             -200               0
1.50825               -0.1942623       -19.18355        -52.46381       -29.58509             -200               0             -200               0
1.51485               -0.1995629       -19.35872        -52.11796       -31.98799             -200               0             -200               0
1.52145                -0.204959       -19.53632        -51.75895       -34.51641             -200               0             -200               0
1.52805                -0.210463       -19.71648         -51.3899        -37.1754             -200               0             -200               0
1.53465               -0.2160883       -19.89931         -51.0138       -39.96647             -200               0             -200               0
1.54125               -0.2218483       -20.08491        -50.63344       -42.88816             -200               0             -200               0
1.54785               -0.2277632       -20.27342         -50.2513       -45.93666             -200               0             -200               0
1.55446               -0.2338493       -20.46491        -49.86959       -49.10636             -200               0             -200               0
1.56106               -0.2401289       -20.65946         -49.4902       -52.39035             -200               0             -200               0
1.56766               -0.2466226       -20.85714        -49.11476        -55.7809             -200               0             -200               0
1.57426                -0.253352       -21.05801        -48.74462       -59.26974             -200               0             -200               0
1.58086               -0.2603415       -21.26211        -48.38087       -62.84839             -200               0             -200               0
1.58746                -0.267613       -21.46946         -48.0244       -66.50833             -200               0             -200               0
1.59406               -0.2751889       -21.68007        -47.67591       -70.24117             -200               0             -200               0
1.60066               -0.2830909       -21.89394        -47.33592       -74.03872             -200               0             -200               0
1.60726               -0.2913392       -22.11105        -47.00481       -77.89311             -200               0             -200               0
1.61386               -0.2999543       -22.33137        -46.68284       -81.79681             -200               0             -200               0
1.62046               -0.3089521       -22.55487        -46.37016       -85.74261             -200               0             -200               0
1.62706               -0.3183505       -22.78151        -46.06681        -89.7237             -200               0             -200               0
1.63366               -0.3281608       -23.01123        -45.77277        -93.7336             -200               0             -200               0
1.64026               -0.3383977       -23.24399        -45.48795       -97.76621             -200               0             -200               0
1.64686               -0.3490669       -23.47973        -45.21218       -101.8157             -200               0             -200               0
1.65347               -0.3601779       -23.71841        -44.94525       -105.8767             -200               0             -200               0
1.66007               -0.3717342       -23.95999        -44.68688       -109.9441             -200               0             -200               0
1.66667               -0.3837395       -24.20444        -44.43676       -114.0129             -200               0             -200               0
1.67327               -0.3961944       -24.45174        -44.19453       -118.0787             -200               0             -200               0
1.67987                -0.409098       -24.70188        -43.95979       -122.1372             -200               0             -200               0
1.68647               -0.4224485       -24.95488         -43.7321       -126.1844             -200               0             -200               0
1.69307               -0.4362441       -25.21075        -43.51098       -130.2167             -200               0             -200               0
1.69967               -0.4504805       -25.46957        -43.29591       -134.2307             -200               0             -200               0
1.70627               -0.4651552       -25.73138        -43.08634       -138.2234             -200               0             -200               0
1.71287                -0.480266        -25.9963        -42.88168        -142.192             -200               0             -200               0
1.71947               -0.4958106       -26.26441         -42.6813       -146.1342             -200               0             -200               0
1.72607               -0.5117894       -26.53587        -42.48457       -150.0479             -200               0             -200               0
1.73267               -0.5282033       -26.81083        -42.29078       -153.9316             -200               0             -200               0
1.73927               -0.5450586       -27.08946        -42.09924        -157.784             -200               0             -200               0
1.74587               -0.5623607       -27.37195        -41.90922       -161.6046             -200               0             -200               0
1.75248                -0.580122       -27.65852        -41.71999       -165.3929             -200               0             -200               0
1.75908               -0.5983559       -27.94938        -41.53079       -169.1495             -200               0             -200               0
1.76568               -0.6170798       -28.24475        -41.34088        -172.875             -200               0             -200               0
1.77228               -0.6363187       -28.54489        -41.14953       -176.5708             -200               0             -200               0
1.77888               -0.6560991       -28.85003        -40.95603        179.7611             -200               0             -200               0
1.78548               -0.6764519       -29.16041        -40.75968        176.1183             -200               0             -200               0
1.79208               -0.6974134       -29.47628        -40.55985        172.4978             -200               0             -200               0
1.79868                -0.719024       -29.79785        -40.35596        168.8959             -200               0             -200               0
1.80528               -0.7413292       -30.12537        -40.14749        165.3088             -200               0             -200               0
1.81188               -0.7643775       -30.45903        -39.93399        161.7321             -200               0             -200               0
1.81848               -0.7882215       -30.79904         -39.7151         158.161             -200               0             -200               0
1.82508               -0.8129178       -31.14557        -39.49057        154.5905             -200               0             -200               0
1.83168               -0.8385249       -31.49878         -39.2602        151.0156             -200               0             -200               0
1.83828               -0.8651064       -31.85882        -39.02394        147.4309             -200               0             -200               0
1.84488               -0.8927253        -32.2258        -38.78181        143.8313             -200               0             -200               0
1.85149               -0.9214499       -32.59982        -38.53393        140.2118             -200               0             -200               0
1.85809               -0.9513465       -32.98096         -38.2805        136.5673             -200               0             -200               0
1.86469               -0.9824857       -33.36927        -38.02183        132.8934             -200               0             -200               0
1.87129                -1.014936        -33.7648        -37.75829        129.1857             -200               0             -200               0
1.87789                 -1.04877       -34.16755         -37.4903        125.4405             -200               0             -200               0
1.88449                -1.084056       -34.57754        -37.21836        121.6543             -200               0             -200               0
1.89109                -1.120867       -34.99475        -36.94298        117.8242             -200               0             -200               0
1.89769                -1.159273       -35.41916        -36.66474        113.9477             -200               0             -200               0
1.90429                -1.199343       -35.85075        -36.38419        110.0228             -200               0             -200               0
1.91089                 -1.24115       -36.28948        -36.10192         106.048             -200               0             -200               0
1.91749                -1.284764       -36.73531        -35.81852        102.0222             -200               0             -200               0
1.92409                -1.330256       -37.18821        -35.53457        97.94479             -200               0             -200               0
1.93069                -1.377698       -37.64815        -35.25062         93.8154             -200               0             -200               0
1.93729                -1.427162       -38.11511        -34.96721        89.63412             -200               0             -200               0
1.94389                -1.478726       -38.58906        -34.68486        85.40132             -200               0             -200               0
1.9505                 -1.532465       -39.07001        -34.40405        81.11761             -200               0             -200               0
1.9571                 -1.588459       -39.55797        -34.12525        76.78385             -200               0             -200               0
1.9637                 -1.646793       -40.05293        -33.84887        72.40111             -200               0             -200               0
1.9703                 -1.707557       -40.55496        -33.57532        67.97058             -200               0             -200               0
1.9769                 -1.770844       -41.06408        -33.30495        63.49361             -200               0             -200               0
1.9835                 -1.836755       -41.58034        -33.03809        58.97164             -200               0             -200               0
1.9901                 -1.905398       -42.10381        -32.77506         54.4062             -200               0             -200               0
1.9967                 -1.976891       -42.63456        -32.51612        49.79885             -200               0             -200               0
2.0033                 -2.051359       -43.17265        -32.26152         45.1512             -200               0             -200               0
2.0099                 -2.128939       -43.71816        -32.01148        40.46487             -200               0             -200               0
2.0165                 -2.209779       -44.27114         -31.7662        35.74151             -200               0             -200               0
2.0231                 -2.294038       -44.83164        -31.52586        30.98273             -200               0             -200               0
2.0297                 -2.381891       -45.39967         -31.2906        26.19015             -200               0             -200               0
2.0363                 -2.473523       -45.97524        -31.06056        21.36535             -200               0             -200               0
2.0429                 -2.569136       -46.55831        -30.83587        16.50989             -200               0             -200               0
2.0495                 -2.668948       -47.14877        -30.61663         11.6253             -200               0             -200               0
2.05611                -2.773192       -47.74649        -30.40293        6.713045             -200               0             -200               0
2.06271                -2.882116       -48.35127        -30.19484        1.774586             -200               0             -200               0
2.06931                -2.995991       -48.96282        -29.99243        -3.18868             -200               0             -200               0
2.07591                -3.115098       -49.58077        -29.79576        -8.17539             -200               0             -200               0
2.08251                -3.239744       -50.20464        -29.60488       -13.18423             -200               0             -200               0
2.08911                 -3.37025       -50.83387        -29.41981       -18.21392             -200               0             -200               0
2.09571                -3.506958       -51.46773         -29.2406       -23.26324             -200               0             -200               0
2.10231                -3.650234       -52.10539        -29.06728       -28.33099             -200               0             -200               0
2.10891                -3.800458       -52.74585        -28.89985       -33.41602             -200               0             -200               0
2.11551                -3.958037       -53.38794        -28.73833       -38.51723             -200               0             -200               0
2.12211                -4.123398       -54.03031        -28.58275       -43.63353             -200               0             -200               0
2.12871                -4.296992       -54.67139        -28.43309       -48.76389             -200               0             -200               0
2.13531                -4.479296       -55.30938        -28.28937        -53.9073             -200               0             -200               0
2.14191                -4.670812       -55.94223        -28.15159        -59.0628             -200               0             -200               0
2.14851                -4.872065       -56.56761        -28.01974       -64.22944             -200               0             -200               0
2.15512                -5.083616       -57.18286        -27.89382       -69.40631             -200               0             -200               0
2.16172                -5.306053       -57.78496        -27.77384       -74.59252             -200               0             -200               0
2.16832                -5.539996       -58.37048        -27.65977        -79.7872             -200               0             -200               0
2.17492                  -5.7861       -58.93556        -27.55162       -84.98953             -200               0             -200               0
2.18152                 -6.04506       -59.47577        -27.44937       -90.19868             -200               0             -200               0
2.18812                -6.317606       -59.98607        -27.35302       -95.41385             -200               0             -200               0
2.19472                -6.604511       -60.46077        -27.26256       -100.6343             -200               0             -200               0
2.20132                -6.906591       -60.89331        -27.17798       -105.8592             -200               0             -200               0
2.20792                -7.224706       -61.27618        -27.09926       -111.0878             -200               0             -200               0
2.21452                -7.559761       -61.60075         -27.0264       -116.3194             -200               0             -200               0
2.22112                -7.912698         -61.857        -26.95938       -121.5533             -200               0             -200               0
2.22772                -8.284496       -62.03336        -26.89821       -126.7888             -200               0             -200               0
2.23432                -8.676157       -62.11628        -26.84285        -132.025             -200               0             -200               0
2.24092                -9.088689       -62.08992        -26.79332       -137.2614             -200               0             -200               0
2.24752                 -9.52307       -61.93561        -26.74958       -142.4973             -200               0             -200               0
2.25413                -9.980199       -61.63132        -26.71165       -147.7319             -200               0             -200               0
2.26073                -10.46082       -61.15092         -26.6795       -152.9646             -200               0             -200               0
2.26733                -10.96542       -60.46339        -26.65313       -158.1946             -200               0             -200               0
2.27393                  -11.494       -59.53189        -26.63252       -163.4213             -200               0             -200               0
2.28053                -12.04587       -58.31278        -26.61767        -168.644             -200               0             -200               0
2.28713                -12.61923       -56.75484        -26.60857        -173.862             -200               0             -200               0
2.29373                -13.21064       -54.79879        -26.60521       -179.0745             -200               0             -200               0