! TOUCHSTONE file generated by CST MICROWAVE STUDIO
! Date and time: Tue Mar 18 00:00:48 2025
! Project name: oblique.cst
! Parameters = {Tilt=30; Fracture=1; B=10; D=160; F=5; Feed=2.85625; L=100; M=30; R=0.384908; S=2; Theta=90; length=57.125; wave=114.25}
! Header version: 2024
! Port assignment regex: !\s*Touchstone port\s*([0-9]+)\s*=\s*(CST MWS port|CST DES external port|CST DES block port)\s*(.+)\s* \(\"(.*)\"\)(\s*mode\s*([0-9]+))?.*
! Touchstone port assignment:
! Touchstone port 1 = CST MWS port 1 ("")
! Touchstone port 2 = CST MWS port 2 ("")
# GHz S DB R 50
1                    -0.02003092       -9.784784        -68.32367       -165.4055             -200               0             -200               0
1.00658              -0.02091527       -9.872855        -68.18739       -169.8725             -200               0             -200               0
1.01316              -0.02183787       -9.961252        -68.07719       -174.2659             -200               0             -200               0
1.01974              -0.02279363       -10.04996        -67.99258       -178.5747             -200               0             -200               0
1.02632              -0.02377459       -10.13898        -67.93308        177.2134             -200               0             -200               0
1.03289              -0.02477407       -10.22832        -67.89817        173.1117             -200               0             -200               0
1.03947              -0.02578635       -10.31798        -67.88724        169.1349             -200               0             -200               0
1.04605              -0.02680417         -10.408        -67.89953        165.2993             -200               0             -200               0
1.05263              -0.02782132       -10.49839        -67.93407        161.6231             -200               0             -200               0
1.05921              -0.02883275       -10.58919        -67.98958        158.1261             -200               0             -200               0
1.06579              -0.02983219       -10.68045        -68.06436        154.8303             -200               0             -200               0
1.07237              -0.03081681       -10.77222        -68.15612        151.7594             -200               0             -200               0
1.07895              -0.03178413       -10.86455        -68.26187        148.9383             -200               0             -200               0
1.08553              -0.03273155        -10.9575        -68.37767        146.3927             -200               0             -200               0
1.09211              -0.03365891       -11.05113        -68.49846        144.1476             -200               0             -200               0
1.09868              -0.03456812       -11.14551        -68.61785        142.2254             -200               0             -200               0
1.10526              -0.03546052       -11.24068        -68.72803        140.6428             -200               0             -200               0
1.11184              -0.03633912       -11.33671        -68.81974        139.4073             -200               0             -200               0
1.11842               -0.0372105       -11.43365        -68.88258        138.5128             -200               0             -200               0
1.125                 -0.0380784       -11.53155        -68.90549        137.9355             -200               0             -200               0
1.13158              -0.03895074       -11.63046        -68.87775        137.6304             -200               0             -200               0
1.13816              -0.03983465       -11.73042        -68.79009        137.5314             -200               0             -200               0
1.14474              -0.04073856       -11.83144        -68.63602        137.5538             -200               0             -200               0
1.15132              -0.04167109       -11.93356        -68.41282        137.6023             -200               0             -200               0
1.15789              -0.04264108       -12.03678        -68.12196          137.58             -200               0             -200               0
1.16447              -0.04365574       -12.14111        -67.76885         137.399             -200               0             -200               0
1.17105              -0.04472546       -12.24654        -67.36194        136.9884             -200               0             -200               0
1.17763              -0.04585635       -12.35305        -66.91148        136.2982             -200               0             -200               0
1.18421              -0.04705623       -12.46064        -66.42827        135.2997             -200               0             -200               0
1.19079              -0.04833118       -12.56927        -65.92267        133.9832             -200               0             -200               0
1.19737              -0.04968585       -12.67891        -65.40396        132.3536             -200               0             -200               0
1.20395              -0.05112447       -12.78953        -64.88004        130.4262             -200               0             -200               0
1.21053              -0.05264986       -12.90108        -64.35731        128.2227             -200               0             -200               0
1.21711              -0.05426179       -13.01352        -63.84081         125.768             -200               0             -200               0
1.22368              -0.05596199       -13.12682        -63.33439        123.0882             -200               0             -200               0
1.23026              -0.05774715       -13.24094         -62.8409        120.2092             -200               0             -200               0
1.23684              -0.05961457       -13.35584        -62.36235        117.1556             -200               0             -200               0
1.24342              -0.06156051       -13.47151        -61.90016        113.9502             -200               0             -200               0
1.25                 -0.06358049       -13.58791        -61.45522        110.6141             -200               0             -200               0
1.25658                -0.065667       -13.70504        -61.02807        107.1664             -200               0             -200               0
1.26316              -0.06781386       -13.82288        -60.61895        103.6245             -200               0             -200               0
1.26974              -0.07001293       -13.94145        -60.22789        100.0042             -200               0             -200               0
1.27632              -0.07225769       -14.06076        -59.85475        96.31962             -200               0             -200               0
1.28289              -0.07453969       -14.18083        -59.49929        92.58379             -200               0             -200               0
1.28947              -0.07685157        -14.3017        -59.16117        88.80848             -200               0             -200               0
1.29605              -0.07918718       -14.42341        -58.83996        85.00451             -200               0             -200               0
1.30263              -0.08153995       -14.54602         -58.5352        81.18184             -200               0             -200               0
1.30921              -0.08390437        -14.6696        -58.24638        77.34972             -200               0             -200               0
1.31579              -0.08627671       -14.79421        -57.97295        73.51675             -200               0             -200               0
1.32237              -0.08865409       -14.91994         -57.7143        69.69104             -200               0             -200               0
1.32895              -0.09103549       -15.04686        -57.46982        65.88019             -200               0             -200               0
1.33553              -0.09342194       -15.17506        -57.23883        62.09141             -200               0             -200               0
1.34211              -0.09581395       -15.30462        -57.02063        58.33157             -200               0             -200               0
1.34868              -0.09821561       -15.43564        -56.81444        54.60717             -200               0             -200               0
1.35526               -0.1006339        -15.5682        -56.61947         50.9244             -200               0             -200               0
1.36184               -0.1030732       -15.70237        -56.43485         47.2891             -200               0             -200               0
1.36842               -0.1055423       -15.83825        -56.25964        43.70678             -200               0             -200               0
1.375                 -0.1080508       -15.97589        -56.09284        40.18253             -200               0             -200               0
1.38158               -0.1106095       -16.11536        -55.93339        36.72101             -200               0             -200               0
1.38816               -0.1132286        -16.2567        -55.78012        33.32635             -200               0             -200               0
1.39474               -0.1159207       -16.39998        -55.63182        30.00207             -200               0             -200               0
1.40132               -0.1186982       -16.54521        -55.48718        26.75099             -200               0             -200               0
1.40789               -0.1215728       -16.69243        -55.34482         23.5751             -200               0             -200               0
1.41447               -0.1245569       -16.84165        -55.20332        20.47544             -200               0             -200               0
1.42105               -0.1276613       -16.99288         -55.0612        17.45198             -200               0             -200               0
1.42763               -0.1308975       -17.14611        -54.91694        14.50352             -200               0             -200               0
1.43421               -0.1342753       -17.30133        -54.76903        11.62757             -200               0             -200               0
1.44079               -0.1378025       -17.45854          -54.616        8.820298             -200               0             -200               0
1.44737               -0.1414882        -17.6177        -54.45643        6.076496             -200               0             -200               0
1.45395               -0.1453377       -17.77879          -54.289        3.389605             -200               0             -200               0
1.46053               -0.1493548        -17.9418        -54.11255       0.7517895             -200               0             -200               0
1.46711               -0.1535425        -18.1067        -53.92607       -1.845913             -200               0             -200               0
1.47368               -0.1579044       -18.27346        -53.72878       -4.413393             -200               0             -200               0
1.48026               -0.1624385       -18.44209        -53.52013       -6.961216             -200               0             -200               0
1.48684               -0.1671449       -18.61256        -53.29984       -9.500318             -200               0             -200               0
1.49342               -0.1720207       -18.78488        -53.06787       -12.04169             -200               0             -200               0
1.5                   -0.1770635       -18.95906        -52.82444       -14.59605             -200               0             -200               0
1.50658                -0.182269       -19.13511        -52.57004       -17.17354             -200               0             -200               0
1.51316               -0.1876328       -19.31308        -52.30535       -19.78347             -200               0             -200               0
1.51974               -0.1931506       -19.49301        -52.03122       -22.43407             -200               0             -200               0
1.52632               -0.1988193       -19.67495        -51.74869       -25.13239             -200               0             -200               0
1.53289               -0.2046343       -19.85899        -51.45886       -27.88413             -200               0             -200               0
1.53947               -0.2105944        -20.0452        -51.16293       -30.69367             -200               0             -200               0
1.54605               -0.2166972       -20.23368        -50.86211       -33.56407             -200               0             -200               0
1.55263               -0.2229427       -20.42454        -50.55761       -36.49714             -200               0             -200               0
1.55921               -0.2293333        -20.6179         -50.2506       -39.49351             -200               0             -200               0
1.56579               -0.2358726       -20.81387        -49.94221       -42.55278             -200               0             -200               0
1.57237               -0.2425668        -21.0126        -49.63348       -45.67368             -200               0             -200               0
1.57895                -0.249424       -21.21422        -49.32538       -48.85412             -200               0             -200               0
1.58553               -0.2564572       -21.41887        -49.01879       -52.09139             -200               0             -200               0
1.59211               -0.2636766       -21.62668        -48.71446       -55.38228             -200               0             -200               0
1.59868                -0.271099       -21.83779        -48.41308       -58.72316             -200               0             -200               0
1.60526               -0.2787447       -22.05232        -48.11523       -62.11012             -200               0             -200               0
1.61184                 -0.28663        -22.2704        -47.82139       -65.53903             -200               0             -200               0
1.61842               -0.2947812       -22.49214        -47.53194       -69.00561             -200               0             -200               0
1.625                   -0.30322       -22.71765        -47.24719       -72.50555             -200               0             -200               0
1.63158               -0.3119742       -22.94702        -46.96736        -76.0345             -200               0             -200               0
1.63816               -0.3210688       -23.18031        -46.69259       -79.58814             -200               0             -200               0
1.64474               -0.3305312       -23.41759        -46.42296       -83.16224             -200               0             -200               0
1.65132               -0.3403916       -23.65892        -46.15847       -86.75267             -200               0             -200               0
1.65789               -0.3506785       -23.90432        -45.89906       -90.35543             -200               0             -200               0
1.66447               -0.3614191       -24.15382         -45.6446       -93.96669             -200               0             -200               0
1.67105               -0.3726422       -24.40741        -45.39491        -97.5828             -200               0             -200               0
1.67763               -0.3843728       -24.66509        -45.14977       -101.2003             -200               0             -200               0
1.68421               -0.3966381       -24.92686         -44.9089        -104.816             -200               0             -200               0
1.69079               -0.4094632       -25.19267        -44.67195        -108.427             -200               0             -200               0
1.69737               -0.4228687       -25.46251        -44.43858       -112.0305             -200               0             -200               0
1.70395               -0.4368777       -25.73633        -44.20835       -115.6241             -200               0             -200               0
1.71053               -0.4515083       -26.01409        -43.98082       -119.2059             -200               0             -200               0
1.71711               -0.4667786       -26.29577        -43.75552        -122.774             -200               0             -200               0
1.72368               -0.4827021       -26.58133        -43.53194       -126.3272             -200               0             -200               0
1.73026               -0.4992945       -26.87074        -43.30955       -129.8644             -200               0             -200               0
1.73684               -0.5165689       -27.16399         -43.0878       -133.3852             -200               0             -200               0
1.74342                -0.534535       -27.46108        -42.86614       -136.8893             -200               0             -200               0
1.75                  -0.5532027       -27.76202          -42.644       -140.3771             -200               0             -200               0
1.75658               -0.5725826       -28.06683        -42.42084       -143.8493             -200               0             -200               0
1.76316               -0.5926821       -28.37556        -42.19612       -147.3071             -200               0             -200               0
1.76974               -0.6135141       -28.68828        -41.96931       -150.7523             -200               0             -200               0
1.77632               -0.6350875       -29.00507        -41.73993       -154.1868             -200               0             -200               0
1.78289               -0.6574144       -29.32603        -41.50752       -157.6131             -200               0             -200               0
1.78947               -0.6805093       -29.65129        -41.27169       -161.0341             -200               0             -200               0
1.79605               -0.7043878       -29.98099        -41.03208       -164.4529             -200               0             -200               0
1.80263                 -0.72907       -30.31529        -40.78841        -167.873             -200               0             -200               0
1.80921               -0.7545776       -30.65437        -40.54046       -171.2981             -200               0             -200               0
1.81579               -0.7809384       -30.99843        -40.28807       -174.7321             -200               0             -200               0
1.82237               -0.8081836       -31.34766        -40.03118       -178.1788             -200               0             -200               0
1.82895               -0.8363489       -31.70228        -39.76977        178.3578             -200               0             -200               0
1.83553               -0.8654753        -32.0625        -39.50392        174.8738             -200               0             -200               0
1.84211               -0.8956081       -32.42856        -39.23376        171.3654             -200               0             -200               0
1.84868               -0.9268011       -32.80064         -38.9595        167.8289             -200               0             -200               0
1.85526               -0.9591108       -33.17899        -38.68141         164.261             -200               0             -200               0
1.86184               -0.9926004       -33.56378         -38.3998        160.6585             -200               0             -200               0
1.86842                -1.027339       -33.95521        -38.11504        157.0187             -200               0             -200               0
1.875                    -1.0634       -34.35346        -37.82753        153.3389             -200               0             -200               0
1.88158                -1.100863       -34.75866        -37.53769         149.617             -200               0             -200               0
1.88816                -1.139814       -35.17094        -37.24598        145.8513             -200               0             -200               0
1.89474                -1.180341        -35.5904        -36.95287        142.0403             -200               0             -200               0
1.90132                -1.222538        -36.0171        -36.65883        138.1829             -200               0             -200               0
1.90789                -1.266503       -36.45108        -36.36434        134.2784             -200               0             -200               0
1.91447                -1.312337       -36.89234        -36.06985        130.3262             -200               0             -200               0
1.92105                -1.360145       -37.34084        -35.77584        126.3262             -200               0             -200               0
1.92763                -1.410033       -37.79651        -35.48273        122.2786             -200               0             -200               0
1.93421                -1.462112       -38.25924        -35.19096        118.1836             -200               0             -200               0
1.94079                -1.516493       -38.72888        -34.90093        114.0419             -200               0             -200               0
1.94737                 -1.57329       -39.20525        -34.61303        109.8541             -200               0             -200               0
1.95395                -1.632617       -39.68813         -34.3276        105.6212             -200               0             -200               0
1.96053                -1.694588       -40.17726          -34.045        101.3442             -200               0             -200               0
1.96711                -1.759322       -40.67236        -33.76552        97.02425             -200               0             -200               0
1.97368                -1.826933       -41.17311        -33.48947        92.66258             -200               0             -200               0
1.98026                -1.897541       -41.67914        -33.21709         88.2605             -200               0             -200               0
1.98684                -1.971263       -42.19009        -32.94863        83.81937             -200               0             -200               0
1.99342                -2.048218       -42.70554        -32.68431        79.34059             -200               0             -200               0
2                      -2.128525       -43.22505        -32.42433        74.82559             -200               0             -200               0
2.00658                -2.212305       -43.74817        -32.16887        70.27581             -200               0             -200               0
2.01316                -2.299681       -44.27441        -31.91808        65.69269             -200               0             -200               0
2.01974                -2.390777       -44.80326        -31.67212        61.07766             -200               0             -200               0
2.02632                -2.485718       -45.33419         -31.4311        56.43215             -200               0             -200               0
2.03289                -2.584635       -45.86666        -31.19514        51.75758             -200               0             -200               0
2.03947                 -2.68766       -46.40006        -30.96435        47.05533             -200               0             -200               0
2.04605                -2.794929        -46.9338         -30.7388        42.32676             -200               0             -200               0
2.05263                -2.906586       -47.46726        -30.51857        37.57321             -200               0             -200               0
2.05921                -3.022777       -47.99975        -30.30372        32.79597             -200               0             -200               0
2.06579                -3.143659        -48.5306        -30.09432        27.99634             -200               0             -200               0
2.07237                -3.269392       -49.05905        -29.89041        23.17553             -200               0             -200               0
2.07895                -3.400147       -49.58432        -29.69202        18.33476             -200               0             -200               0
2.08553                -3.536105       -50.10557         -29.4992        13.47521             -200               0             -200               0
2.09211                -3.677457        -50.6219        -29.31196        8.598009             -200               0             -200               0
2.09868                -3.824405       -51.13233        -29.13033        3.704273             -200               0             -200               0
2.10526                -3.977162       -51.63579        -28.95432        -1.20492             -200               0             -200               0
2.11184                -4.135958       -52.13114        -28.78395        -6.12852             -200               0             -200               0
2.11842                -4.301034       -52.61711        -28.61922       -11.06551             -200               0             -200               0
2.125                  -4.472647       -53.09229        -28.46013       -16.01491             -200               0             -200               0
2.13158                -4.651072       -53.55515        -28.30668       -20.97574             -200               0             -200               0
2.13816                -4.836597       -54.00396        -28.15888       -25.94707             -200               0             -200               0
2.14474                -5.029532       -54.43681        -28.01671       -30.92799             -200               0             -200               0
2.15132                -5.230199       -54.85156        -27.88018       -35.91761             -200               0             -200               0
2.15789                -5.438945       -55.24582        -27.74926       -40.91505             -200               0             -200               0
2.16447                 -5.65613        -55.6169        -27.62395       -45.91947             -200               0             -200               0
2.17105                -5.882136       -55.96178        -27.50423       -50.93003             -200               0             -200               0
2.17763                 -6.11736       -56.27709         -27.3901       -55.94592             -200               0             -200               0
2.18421                -6.362218       -56.55897        -27.28153       -60.96636             -200               0             -200               0
2.19079                -6.617138        -56.8031        -27.17851       -65.99054             -200               0             -200               0
2.19737                -6.882564       -57.00461        -27.08102        -71.0177             -200               0             -200               0
2.20395                -7.158946       -57.15793        -26.98905       -76.04709             -200               0             -200               0
2.21053                -7.446739       -57.25679        -26.90256       -81.07796             -200               0             -200               0
2.21711                -7.746391       -57.29405        -26.82155       -86.10957             -200               0             -200               0
2.22368                -8.058339       -57.26161        -26.74599       -91.14119             -200               0             -200               0
2.23026                -8.382986       -57.15023        -26.67585       -96.17209             -200               0             -200               0
2.23684                -8.720691        -56.9494        -26.61112       -101.2016             -200               0             -200               0
2.24342                -9.071734       -56.64716        -26.55177       -106.2289             -200               0             -200               0
2.25                   -9.436285       -56.22987        -26.49778       -111.2534             -200               0             -200               0
2.25658                -9.814355       -55.68207        -26.44911       -116.2744             -200               0             -200               0
2.26316                -10.20574       -54.98618        -26.40574        -121.291             -200               0             -200               0
2.26974                -10.60991       -54.12236        -26.36765       -126.3028             -200               0             -200               0
2.27632                -11.02594       -53.06843        -26.33481       -131.3089             -200               0             -200               0
2.28289                -11.45236       -51.79978        -26.30718       -136.3086             -200               0             -200               0
2.28947                -11.88693       -50.28959        -26.28473       -141.3013             -200               0             -200               0