! TOUCHSTONE file generated by CST MICROWAVE STUDIO
! Date and time: Tue Mar 18 00:01:49 2025
! Project name: oblique.cst
! Parameters = {Tilt=30; Fracture=1; B=12.5; D=160; F=25; Feed=2.85625; L=100; M=50; R=0.384908; S=2; Theta=90; length=57.125; wave=114.25}
! Header version: 2024
! Port assignment regex: !\s*Touchstone port\s*([0-9]+)\s*=\s*(CST MWS port|CST DES external port|CST DES block port)\s*(.+)\s* \(\"(.*)\"\)(\s*mode\s*([0-9]+))?.*
! Touchstone port assignment:
! Touchstone port 1 = CST MWS port 1 ("")
! Touchstone port 2 = CST MWS port 2 ("")
# GHz S DB R 50
1                    -0.01919939       -9.814028        -70.36169        135.1451             -200               0             -200               0
1.0076               -0.02016042       -9.915407          -70.344        130.0376             -200               0             -200               0
1.01521               -0.0211298       -10.01735        -70.34406        125.0221             -200               0             -200               0
1.02281              -0.02210249        -10.1199        -70.36186        120.1057             -200               0             -200               0
1.03042              -0.02307635        -10.2231        -70.39739        115.2962             -200               0             -200               0
1.03802              -0.02404483       -10.32698        -70.45058        110.6031             -200               0             -200               0
1.04563              -0.02500701       -10.43161        -70.52131        106.0369             -200               0             -200               0
1.05323              -0.02596015       -10.53704         -70.6093        101.6097             -200               0             -200               0
1.06084              -0.02690463       -10.64332        -70.71416        97.33543             -200               0             -200               0
1.06844              -0.02783843       -10.75052        -70.83524        93.22957             -200               0             -200               0
1.07605              -0.02876593       -10.85871        -70.97159        89.30965             -200               0             -200               0
1.08365              -0.02968659       -10.96793        -71.12188        85.59509             -200               0             -200               0
1.09125              -0.03060564       -11.07826        -71.28423        82.10711             -200               0             -200               0
1.09886              -0.03152729       -11.18974        -71.45608        78.86846             -200               0             -200               0
1.10646              -0.03245636       -11.30245        -71.63402        75.90274             -200               0             -200               0
1.11407              -0.03340018       -11.41642         -71.8136        73.23334             -200               0             -200               0
1.12167              -0.03436535       -11.53171        -71.98914        70.88169             -200               0             -200               0
1.12928              -0.03536059       -11.64835        -72.15361        68.86481             -200               0             -200               0
1.13688              -0.03639322       -11.76638         -72.2986        67.19202             -200               0             -200               0
1.14449              -0.03747177       -11.88582        -72.41446        65.86098             -200               0             -200               0
1.15209              -0.03860715        -12.0067        -72.49076        64.85361             -200               0             -200               0
1.1597               -0.03980556       -12.12904        -72.51705         64.1327             -200               0             -200               0
1.1673               -0.04107778       -12.25283        -72.48387        63.64056             -200               0             -200               0
1.1749               -0.04243163       -12.37809        -72.38399        63.30074             -200               0             -200               0
1.18251              -0.04387452        -12.5048        -72.21346        63.02359             -200               0             -200               0
1.19011              -0.04541416       -12.63295        -71.97223        62.71469             -200               0             -200               0
1.19772              -0.04705673       -12.76254        -71.66414        62.28459             -200               0             -200               0
1.20532               -0.0488097       -12.89354        -71.29632         61.6572             -200               0             -200               0
1.21293              -0.05067753       -13.02593        -70.87807        60.77529             -200               0             -200               0
1.22053                -0.052662       -13.15968         -70.4197        59.60219             -200               0             -200               0
1.22814              -0.05476763       -13.29479        -69.93146        58.12033             -200               0             -200               0
1.23574               -0.0569948       -13.43121         -69.4228        56.32792             -200               0             -200               0
1.24335              -0.05934689       -13.56894        -68.90194        54.23481             -200               0             -200               0
1.25095              -0.06182145       -13.70795        -68.37571        51.85851             -200               0             -200               0
1.25856               -0.0644185       -13.84823        -67.84958        49.22103             -200               0             -200               0
1.26616              -0.06713691       -13.98978        -67.32779         46.3463             -200               0             -200               0
1.27376              -0.06997191       -14.13259        -66.81353        43.25852             -200               0             -200               0
1.28137              -0.07292239       -14.27666        -66.30913        39.98111             -200               0             -200               0
1.28897              -0.07598497       -14.42201        -65.81624          36.536             -200               0             -200               0
1.29658               -0.0791553       -14.56867        -65.33596         32.9434             -200               0             -200               0
1.30418              -0.08242953       -14.71664        -64.86898        29.22163             -200               0             -200               0
1.31179              -0.08580477       -14.86598        -64.41568        25.38723             -200               0             -200               0
1.31939               -0.0892794       -15.01672        -63.97619        21.45498             -200               0             -200               0
1.327                -0.09284945       -15.16892        -63.55048        17.43811             -200               0             -200               0
1.3346               -0.09651355       -15.32264        -63.13837        13.34841             -200               0             -200               0
1.34221               -0.1002701       -15.47794         -62.7396        9.196407             -200               0             -200               0
1.34981               -0.1041225       -15.63489        -62.35383        4.991501             -200               0             -200               0
1.35741               -0.1080687       -15.79358        -61.98069       0.7421118             -200               0             -200               0
1.36502               -0.1121148       -15.95407        -61.61975       -3.544214             -200               0             -200               0
1.37262               -0.1162631       -16.11645        -61.27058       -7.860686             -200               0             -200               0
1.38023               -0.1205193       -16.28081         -60.9327       -12.20119             -200               0             -200               0
1.38783               -0.1248904       -16.44723        -60.60566       -16.56018             -200               0             -200               0
1.39544               -0.1293865       -16.61578        -60.28898       -20.93266             -200               0             -200               0
1.40304               -0.1340152       -16.78656        -59.98217       -25.31407             -200               0             -200               0
1.41065               -0.1387901       -16.95962        -59.68475       -29.70025             -200               0             -200               0
1.41825               -0.1437211       -17.13504        -59.39622       -34.08746             -200               0             -200               0
1.42586               -0.1488222       -17.31289         -59.1161       -38.47225             -200               0             -200               0
1.43346               -0.1541092       -17.49322        -58.84389       -42.85149             -200               0             -200               0
1.44106               -0.1595962       -17.67607        -58.57908       -47.22235             -200               0             -200               0
1.44867               -0.1652993       -17.86149        -58.32119       -51.58227             -200               0             -200               0
1.45627               -0.1712334       -18.04951        -58.06969       -55.92895             -200               0             -200               0
1.46388               -0.1774153       -18.24014        -57.82408       -60.26033             -200               0             -200               0
1.47148               -0.1838597       -18.43341        -57.58385       -64.57463             -200               0             -200               0
1.47909                -0.190584       -18.62932        -57.34846       -68.87028             -200               0             -200               0
1.48669               -0.1976025       -18.82785         -57.1174       -73.14599             -200               0             -200               0
1.4943                -0.2049299       -19.02901        -56.89015       -77.40071             -200               0             -200               0
1.5019                -0.2125806       -19.23278        -56.66616       -81.63366             -200               0             -200               0
1.50951                -0.220565       -19.43913         -56.4449       -85.84431             -200               0             -200               0
1.51711               -0.2288952       -19.64804        -56.22586       -90.03241             -200               0             -200               0
1.52471               -0.2375835       -19.85949        -56.00849       -94.19798             -200               0             -200               0
1.53232               -0.2466364       -20.07344        -55.79229       -98.34134             -200               0             -200               0
1.53992               -0.2560627       -20.28987        -55.57673       -102.4631             -200               0             -200               0
1.54753               -0.2658682       -20.50874        -55.36133       -106.5641             -200               0             -200               0
1.55513               -0.2760583       -20.73005        -55.14559       -110.6455             -200               0             -200               0
1.56274               -0.2866375       -20.95378        -54.92906       -114.7088             -200               0             -200               0
1.57034               -0.2976083       -21.17991         -54.7113       -118.7557             -200               0             -200               0
1.57795               -0.3089723       -21.40844        -54.49192       -122.7882             -200               0             -200               0
1.58555               -0.3207327       -21.63939        -54.27053       -126.8084             -200               0             -200               0
1.59316               -0.3328884       -21.87277         -54.0468       -130.8189             -200               0             -200               0
1.60076                -0.345441       -22.10861        -53.82044       -134.8223             -200               0             -200               0
1.60837               -0.3583904       -22.34696        -53.59121       -138.8213             -200               0             -200               0
1.61597               -0.3717389       -22.58787        -53.35889       -142.8189             -200               0             -200               0
1.62357               -0.3854853        -22.8314        -53.12335       -146.8181             -200               0             -200               0
1.63118               -0.3996347       -23.07764        -52.88449        -150.822             -200               0             -200               0
1.63878               -0.4141896       -23.32668        -52.64224       -154.8335             -200               0             -200               0
1.64639               -0.4291547       -23.57863        -52.39661       -158.8559             -200               0             -200               0
1.65399               -0.4445364       -23.83358        -52.14765        -162.892             -200               0             -200               0
1.6616                -0.4603421       -24.09168        -51.89546       -166.9448             -200               0             -200               0
1.6692                -0.4765826       -24.35304        -51.64015        -171.017             -200               0             -200               0
1.67681               -0.4932696       -24.61781        -51.38192       -175.1113             -200               0             -200               0
1.68441               -0.5104181       -24.88612        -51.12097       -179.2299             -200               0             -200               0
1.69202               -0.5280447       -25.15813        -50.85754        176.6248             -200               0             -200               0
1.69962               -0.5461701       -25.43398        -50.59189        172.4509             -200               0             -200               0
1.70722               -0.5648151       -25.71382        -50.32431        168.2466             -200               0             -200               0
1.71483               -0.5840045       -25.99781         -50.0551        164.0104             -200               0             -200               0
1.72243               -0.6037658       -26.28607        -49.78458         159.741             -200               0             -200               0
1.73004               -0.6241272       -26.57875        -49.51306        155.4372             -200               0             -200               0
1.73764               -0.6451197       -26.87598        -49.24087        151.0983             -200               0             -200               0
1.74525               -0.6667789       -27.17789        -48.96834        146.7236             -200               0             -200               0
1.75285               -0.6891383       -27.48458        -48.69577        142.3127             -200               0             -200               0
1.76046               -0.7122364       -27.79618         -48.4235        137.8653             -200               0             -200               0
1.76806               -0.7361105       -28.11278        -48.15181        133.3813             -200               0             -200               0
1.77567               -0.7608003       -28.43446        -47.88101        128.8609             -200               0             -200               0
1.78327               -0.7863468       -28.76132        -47.61138        124.3041             -200               0             -200               0
1.79087               -0.8127913       -29.09341        -47.34319        119.7115             -200               0             -200               0
1.79848               -0.8401763        -29.4308        -47.07669        115.0833             -200               0             -200               0
1.80608               -0.8685446       -29.77354        -46.81212        110.4203             -200               0             -200               0
1.81369               -0.8979384       -30.12169         -46.5497        105.7229             -200               0             -200               0
1.82129               -0.9284011       -30.47528        -46.28966        100.9919             -200               0             -200               0
1.8289                -0.9599762       -30.83438        -46.03218        96.22806             -200               0             -200               0
1.8365                -0.9927057         -31.199        -45.77745        91.43216             -200               0             -200               0
1.84411                -1.026635        -31.5692        -45.52563        86.60504             -200               0             -200               0
1.85171                -1.061807       -31.94502        -45.27688        81.74756             -200               0             -200               0
1.85932                -1.098266       -32.32652        -45.03134         76.8606             -200               0             -200               0
1.86692                -1.136057       -32.71375        -44.78913        71.94504             -200               0             -200               0
1.87452                -1.175226       -33.10679        -44.55038        67.00179             -200               0             -200               0
1.88213                 -1.21582       -33.50571        -44.31518        62.03175             -200               0             -200               0
1.88973                 -1.25789       -33.91062        -44.08364         57.0358             -200               0             -200               0
1.89734                -1.301484       -34.32161        -43.85584        52.01483             -200               0             -200               0
1.90494                -1.346657       -34.73881        -43.63186        46.96972             -200               0             -200               0
1.91255                -1.393468       -35.16236        -43.41177        41.90133             -200               0             -200               0
1.92015                -1.441976       -35.59242        -43.19562        36.81049             -200               0             -200               0
1.92776                -1.492249       -36.02917        -42.98347        31.69804             -200               0             -200               0
1.93536                -1.544356       -36.47278        -42.77538        26.56477             -200               0             -200               0
1.94297                -1.598376       -36.92347        -42.57137        21.41149             -200               0             -200               0
1.95057                -1.654392       -37.38146         -42.3715        16.23894             -200               0             -200               0
1.95817                -1.712497       -37.84696        -42.17578        11.04789             -200               0             -200               0
1.96578                -1.772791       -38.32022        -41.98426        5.839036             -200               0             -200               0
1.97338                -1.835382       -38.80147        -41.79694       0.6130921             -200               0             -200               0
1.98099                -1.900389       -39.29097        -41.61385        -4.62927             -200               0             -200               0
1.98859                -1.967942       -39.78893        -41.43501       -9.887393             -200               0             -200               0
1.9962                 -2.038181       -40.29562        -41.26044       -15.16064             -200               0             -200               0
2.0038                  -2.11126       -40.81122        -41.09013        -20.4484             -200               0             -200               0
2.01141                -2.187343       -41.33595         -40.9241       -25.75009             -200               0             -200               0
2.01901                -2.266607       -41.86999        -40.76236       -31.06511             -200               0             -200               0
2.02662                -2.349247       -42.41346        -40.60492       -36.39294             -200               0             -200               0
2.03422                -2.435467       -42.96648        -40.45177       -41.73302             -200               0             -200               0
2.04183                -2.525487       -43.52912        -40.30292       -47.08485             -200               0             -200               0
2.04943                -2.619546       -44.10136        -40.15837       -52.44792             -200               0             -200               0
2.05703                -2.717893       -44.68318        -40.01811       -57.82176             -200               0             -200               0
2.06464                -2.820799       -45.27445        -39.88216        -63.2059             -200               0             -200               0
2.07224                -2.928547       -45.87498        -39.75051       -68.59988             -200               0             -200               0
2.07985                -3.041442       -46.48448        -39.62315       -74.00328             -200               0             -200               0
2.08745                -3.159802       -47.10261        -39.50009       -79.41567             -200               0             -200               0
2.09506                 -3.28397       -47.72888        -39.38132       -84.83665             -200               0             -200               0
2.10266                -3.414302       -48.36273        -39.26684       -90.26582             -200               0             -200               0
2.11027                 -3.55118       -49.00343        -39.15665        -95.7028             -200               0             -200               0
2.11787                -3.695006       -49.65019        -39.05074       -101.1472             -200               0             -200               0
2.12548                -3.846205       -50.30199        -38.94912       -106.5987             -200               0             -200               0
2.13308                -4.005225       -50.95772        -38.85178        -112.057             -200               0             -200               0
2.14068                -4.172543       -51.61606        -38.75873       -117.5216             -200               0             -200               0
2.14829                -4.348663        -52.2755        -38.66995       -122.9923             -200               0             -200               0
2.15589                -4.534122       -52.93433        -38.58545       -128.4688             -200               0             -200               0
2.1635                 -4.729488       -53.59059        -38.50523       -133.9507             -200               0             -200               0
2.1711                 -4.935369       -54.24203        -38.42929       -139.4377             -200               0             -200               0
2.17871                -5.152411       -54.88612        -38.35763       -144.9296             -200               0             -200               0
2.18631                -5.381308       -55.51998        -38.29026        -150.426             -200               0             -200               0
2.19392                -5.622804       -56.14033        -38.22717       -155.9266             -200               0             -200               0
2.20152                -5.877696        -56.7434        -38.16836       -161.4313             -200               0             -200               0
2.20913                -6.146848       -57.32493        -38.11385       -166.9397             -200               0             -200               0
2.21673                -6.431192       -57.87996        -38.06364       -172.4515             -200               0             -200               0
2.22433                -6.731736       -58.40285        -38.01773       -177.9665             -200               0             -200               0
2.23194                -7.049579       -58.88701        -37.97613        176.5156             -200               0             -200               0
2.23954                -7.385916        -59.3248        -37.93884         170.995             -200               0             -200               0
2.24715                -7.742047       -59.70725        -37.90589        165.4719             -200               0             -200               0
2.25475                 -8.11939       -60.02379        -37.87727        159.9467             -200               0             -200               0
2.26236                -8.519491        -60.2619          -37.853        154.4196             -200               0             -200               0
2.26996                -8.944028       -60.40655        -37.83308        148.8908             -200               0             -200               0
2.27757                -9.394812       -60.43969        -37.81754        143.3606             -200               0             -200               0
2.28517                -9.873781       -60.33934        -37.80639        137.8292             -200               0             -200               0
2.29278                -10.38297       -60.07862        -37.79964        132.2968             -200               0             -200               0
2.30038                -10.92443       -59.62436        -37.79731        126.7638             -200               0             -200               0
2.30798                -11.50017       -58.93529        -37.79942        121.2303             -200               0             -200               0
2.31559                -12.11188       -57.95984        -37.80599        115.6965             -200               0             -200               0
2.32319                -12.76058        -56.6333        -37.81703        110.1628             -200               0             -200               0
2.3308                 -13.44602       -54.87447        -37.83258        104.6294             -200               0             -200               0
2.3384                 -14.16559       -52.58228        -37.85266        99.09648             -200               0             -200               0
2.34601                -14.91267       -49.63345        -37.87729        93.56435             -200               0             -200               0
2.35361                -15.67399       -45.88401         -37.9065        88.03326             -200               0             -200               0
2.36122                -16.42605       -41.18042        -37.94032        82.50346             -200               0             -200               0
2.36882                 -17.1312       -35.38973        -37.97878        76.97523             -200               0             -200               0
2.37643                -17.73553       -28.45853        -38.02191        71.44882             -200               0             -200               0
2.38403                -18.17353       -20.49681        -38.06976        65.92452             -200               0             -200               0
2.39163                -18.38408       -11.84437        -38.12235        60.40261             -200               0             -200               0
2.39924                -18.33452       -3.043018        -38.17972        54.88337             -200               0             -200               0
2.40684                -18.03679        5.317571        -38.24193        49.36711             -200               0             -200               0
2.41445                -17.54126        12.78855          -38.309        43.85414             -200               0             -200               0
2.42205                -16.91402        19.15368        -38.38098        38.34477             -200               0             -200               0
2.42966                -16.21569        24.39868        -38.45794        32.83932             -200               0             -200               0
2.43726                -15.49175        28.62748         -38.5399        27.33815             -200               0             -200               0
2.44487                -14.77199        31.98901        -38.62694         21.8416             -200               0             -200               0
2.45247                -14.07403        34.63401         -38.7191        16.35003             -200               0             -200               0
2.46008                -13.40727        36.69622        -38.81644        10.86384             -200               0             -200               0
2.46768                -12.77594        38.28715        -38.91902        5.383413             -200               0             -200               0
2.47529                -12.18121        39.49696        -39.02692     -0.09082359             -200               0             -200               0
2.48289                -11.62253        40.39769         -39.1402       -5.558435             -200               0             -200               0
2.49049                -11.09841         41.0467        -39.25893       -11.01896             -200               0             -200               0