! TOUCHSTONE file generated by CST MICROWAVE STUDIO
! Date and time: Tue Mar 18 00:02:48 2025
! Project name: oblique.cst
! Parameters = {Tilt=40; Fracture=1; B=12.5; D=160; F=5; Feed=2.85625; L=100; M=10; R=0.384908; S=2; Theta=270; length=57.125; wave=114.25}
! Header version: 2024
! Port assignment regex: !\s*Touchstone port\s*([0-9]+)\s*=\s*(CST MWS port|CST DES external port|CST DES block port)\s*(.+)\s* \(\"(.*)\"\)(\s*mode\s*([0-9]+))?.*
! Touchstone port assignment:
! Touchstone port 1 = CST MWS port 1 ("")
! Touchstone port 2 = CST MWS port 2 ("")
# GHz S DB R 50
1                    -0.01898476       -9.783754        -71.03429       -126.0903             -200               0             -200               0
1.00658              -0.01971062       -9.872576        -70.42927       -130.4093             -200               0             -200               0
1.01316               -0.0204884       -9.961846        -69.88111       -134.8361             -200               0             -200               0
1.01974               -0.0213134       -10.05153        -69.38512        -139.339             -200               0             -200               0
1.02632              -0.02218127       -10.14162        -68.93741       -143.8925             -200               0             -200               0
1.03289              -0.02308812       -10.23208        -68.53471       -148.4756             -200               0             -200               0
1.03947              -0.02402717        -10.3229        -68.17429       -153.0702             -200               0             -200               0
1.04605              -0.02499096       -10.41409        -67.85386       -157.6607             -200               0             -200               0
1.05263               -0.0259738       -10.50564        -67.57152       -162.2327             -200               0             -200               0
1.05921              -0.02696926       -10.59757        -67.32566       -166.7727             -200               0             -200               0
1.06579              -0.02796921        -10.6899        -67.11494       -171.2676             -200               0             -200               0
1.07237              -0.02896871       -10.78266        -66.93823       -175.7042             -200               0             -200               0
1.07895              -0.02995949       -10.87589        -66.79454        179.9308             -200               0             -200               0
1.08553              -0.03093834       -10.96963        -66.68304        175.6517             -200               0             -200               0
1.09211              -0.03190069       -11.06394        -66.60295        171.4737             -200               0             -200               0
1.09868               -0.0328428       -11.15887        -66.55351        167.4136             -200               0             -200               0
1.10526              -0.03376391       -11.25448        -66.53394        163.4895             -200               0             -200               0
1.11184              -0.03466212       -11.35084        -66.54331         159.722             -200               0             -200               0
1.11842              -0.03553856       -11.44802        -66.58049         156.134             -200               0             -200               0
1.125                -0.03639587       -11.54607          -66.644        152.7508             -200               0             -200               0
1.13158               -0.0372366       -11.64506        -66.73185         149.601             -200               0             -200               0
1.13816              -0.03806615       -11.74506        -66.84131        146.7156             -200               0             -200               0
1.14474              -0.03888824       -11.84612        -66.96868        144.1283             -200               0             -200               0
1.15132              -0.03971312        -11.9483        -67.10897        141.8741             -200               0             -200               0
1.15789              -0.04054648       -12.05163        -67.25555        139.9878             -200               0             -200               0
1.16447              -0.04139739       -12.15615        -67.39982        138.5004             -200               0             -200               0
1.17105              -0.04227665        -12.2619        -67.53103        137.4349             -200               0             -200               0
1.17763              -0.04319169        -12.3689        -67.63626        136.7995             -200               0             -200               0
1.18421              -0.04415138       -12.47715        -67.70093         136.581             -200               0             -200               0
1.19079              -0.04516843       -12.58666        -67.70986        136.7373             -200               0             -200               0
1.19737              -0.04625012       -12.69742          -67.649        137.1937             -200               0             -200               0
1.20395               -0.0474051       -12.80942        -67.50755        137.8448             -200               0             -200               0
1.21053              -0.04864119       -12.92263        -67.27986        138.5637             -200               0             -200               0
1.21711              -0.04996541       -13.03704         -66.9666        139.2169             -200               0             -200               0
1.22368              -0.05138395        -13.1526        -66.57451        139.6822             -200               0             -200               0
1.23026              -0.05290061       -13.26927        -66.11506        139.8621             -200               0             -200               0
1.23684              -0.05451921       -13.38702        -65.60233        139.6908             -200               0             -200               0
1.24342               -0.0562394       -13.50581        -65.05102         139.135             -200               0             -200               0
1.25                 -0.05806464        -13.6256        -64.47484        138.1879             -200               0             -200               0
1.25658              -0.05999146       -13.74634        -63.88562        136.8629             -200               0             -200               0
1.26316              -0.06201894         -13.868          -63.293        135.1858             -200               0             -200               0
1.26974              -0.06414151       -13.99056        -62.70443        133.1893             -200               0             -200               0
1.27632              -0.06635682       -14.11399        -62.12547        130.9086             -200               0             -200               0
1.28289              -0.06865624       -14.23828        -61.56008        128.3785             -200               0             -200               0
1.28947              -0.07103571       -14.36343        -61.01099        125.6324             -200               0             -200               0
1.29605              -0.07348799       -14.48942        -60.47995        122.7006             -200               0             -200               0
1.30263              -0.07600382        -14.6163          -59.968        119.6108             -200               0             -200               0
1.30921              -0.07857932       -14.74406        -59.47565        116.3876             -200               0             -200               0
1.31579              -0.08120482       -14.87277        -59.00299         113.053             -200               0             -200               0
1.32237              -0.08387524       -15.00245        -58.54986        109.6263             -200               0             -200               0
1.32895              -0.08658459       -15.13316        -58.11589        106.1247             -200               0             -200               0
1.33553              -0.08932884       -15.26498        -57.70055        102.5636             -200               0             -200               0
1.34211              -0.09210298       -15.39796        -57.30322        98.95651             -200               0             -200               0
1.34868              -0.09490534        -15.5322         -56.9232        95.31551             -200               0             -200               0
1.35526               -0.0977361       -15.66777        -56.55974        91.65147             -200               0             -200               0
1.36184               -0.1005958       -15.80476        -56.21202        87.97414             -200               0             -200               0
1.36842                -0.103488       -15.94326        -55.87923         84.2923             -200               0             -200               0
1.375                 -0.1064144       -16.08337         -55.5605        80.61389             -200               0             -200               0
1.38158               -0.1093843       -16.22516        -55.25495        76.94606             -200               0             -200               0
1.38816                -0.112404       -16.36872        -54.96166        73.29529             -200               0             -200               0
1.39474               -0.1154836       -16.51413         -54.6797        69.66739             -200               0             -200               0
1.40132               -0.1186318       -16.66146         -54.4081        66.06755             -200               0             -200               0
1.40789               -0.1218629       -16.81078        -54.14587        62.50037             -200               0             -200               0
1.41447                -0.125187       -16.96213        -53.89201        58.96981             -200               0             -200               0
1.42105               -0.1286198       -17.11557        -53.64548        55.47924             -200               0             -200               0
1.42763               -0.1321726       -17.27113         -53.4052        52.03141             -200               0             -200               0
1.43421               -0.1358623       -17.42883        -53.17012        48.62836             -200               0             -200               0
1.44079               -0.1397008       -17.58868        -52.93913         45.2715             -200               0             -200               0
1.44737               -0.1437016       -17.75069        -52.71113        41.96147             -200               0             -200               0
1.45395               -0.1478778       -17.91485        -52.48504        38.69817             -200               0             -200               0
1.46053               -0.1522411       -18.08115        -52.25977        35.48075             -200               0             -200               0
1.46711               -0.1568028       -18.24955        -52.03427        32.30755             -200               0             -200               0
1.47368               -0.1615703       -18.42004        -51.80753        29.17614             -200               0             -200               0
1.48026               -0.1665525       -18.59258        -51.57861         26.0833             -200               0             -200               0
1.48684               -0.1717558       -18.76713        -51.34662        23.02511             -200               0             -200               0
1.49342               -0.1771838       -18.94366        -51.11079        19.99696             -200               0             -200               0
1.5                   -0.1828397       -19.12214        -50.87043        16.99367             -200               0             -200               0
1.50658                -0.188725       -19.30254        -50.62499        14.00957             -200               0             -200               0
1.51316               -0.1948382       -19.48482        -50.37404        11.03864             -200               0             -200               0
1.51974               -0.2011781       -19.66899        -50.11728        8.074612             -200               0             -200               0
1.52632               -0.2077408       -19.85502        -49.85456        5.111156             -200               0             -200               0
1.53289               -0.2145229       -20.04294        -49.58586        2.141989             -200               0             -200               0
1.53947               -0.2215199       -20.23275         -49.3113      -0.8389652             -200               0             -200               0
1.54605               -0.2287251       -20.42449        -49.03111       -3.837458             -200               0             -200               0
1.55263               -0.2361346        -20.6182        -48.74566       -6.858801             -200               0             -200               0
1.55921               -0.2437427       -20.81395        -48.45536        -9.90777             -200               0             -200               0
1.56579               -0.2515451        -21.0118        -48.16076       -12.98854             -200               0             -200               0
1.57237               -0.2595381       -21.21186        -47.86244       -16.10465             -200               0             -200               0
1.57895               -0.2677194       -21.41422        -47.56101       -19.25894             -200               0             -200               0
1.58553               -0.2760887       -21.61901        -47.25714       -22.45363             -200               0             -200               0
1.59211               -0.2846473       -21.82634        -46.95148       -25.69023             -200               0             -200               0
1.59868               -0.2933996       -22.03636         -46.6447       -28.96966             -200               0             -200               0
1.60526                 -0.30235       -22.24921        -46.33744       -32.29226             -200               0             -200               0
1.61184               -0.3115088       -22.46504        -46.03032       -35.65784             -200               0             -200               0
1.61842               -0.3208871       -22.68401        -45.72391       -39.06574             -200               0             -200               0
1.625                 -0.3304986       -22.90627        -45.41876        -42.5149             -200               0             -200               0
1.63158               -0.3403607       -23.13197        -45.11537        -46.0039             -200               0             -200               0
1.63816                -0.350493       -23.36125        -44.81419       -49.53103             -200               0             -200               0
1.64474                -0.360918       -23.59427        -44.51561       -53.09435             -200               0             -200               0
1.65132               -0.3716602       -23.83114        -44.21999       -56.69172             -200               0             -200               0
1.65789               -0.3827476       -24.07199        -43.92761       -60.32088             -200               0             -200               0
1.66447               -0.3942076       -24.31692        -43.63873       -63.97946             -200               0             -200               0
1.67105               -0.4060709       -24.56603        -43.35355       -67.66501             -200               0             -200               0
1.67763               -0.4183685       -24.81939        -43.07223       -71.37508             -200               0             -200               0
1.68421               -0.4311364       -25.07707        -42.79488       -75.10721             -200               0             -200               0
1.69079               -0.4444047        -25.3391        -42.52156       -78.85897             -200               0             -200               0
1.69737               -0.4582063       -25.60552        -42.25232       -82.62797             -200               0             -200               0
1.70395               -0.4725754       -25.87634        -41.98714        -86.4119             -200               0             -200               0
1.71053               -0.4875443       -26.15156        -41.72599       -90.20852             -200               0             -200               0
1.71711               -0.5031433       -26.43117         -41.4688        -94.0157             -200               0             -200               0
1.72368               -0.5194031       -26.71513        -41.21547       -97.83142             -200               0             -200               0
1.73026               -0.5363524       -27.00342        -40.96587       -101.6538             -200               0             -200               0
1.73684               -0.5540177       -27.29599        -40.71985       -105.4811             -200               0             -200               0
1.74342               -0.5724226       -27.59281        -40.47724       -109.3117             -200               0             -200               0
1.75                  -0.5915911       -27.89382        -40.23785       -113.1441             -200               0             -200               0
1.75658                -0.611543       -28.19898        -40.00146        -116.977             -200               0             -200               0
1.76316               -0.6323006       -28.50825        -39.76786       -120.8094             -200               0             -200               0
1.76974               -0.6538777       -28.82161         -39.5368       -124.6403             -200               0             -200               0
1.77632               -0.6762926       -29.13904        -39.30803        -128.469             -200               0             -200               0
1.78289               -0.6995607       -29.46052        -39.08131       -132.2948             -200               0             -200               0
1.78947               -0.7236947       -29.78609        -38.85636       -136.1174             -200               0             -200               0
1.79605               -0.7487094       -30.11575        -38.63293       -139.9366             -200               0             -200               0
1.80263               -0.7746178       -30.44957        -38.41075       -143.7524             -200               0             -200               0
1.80921               -0.8014363       -30.78761        -38.18958       -147.5649             -200               0             -200               0
1.81579               -0.8291799       -31.12996        -37.96914       -151.3747             -200               0             -200               0
1.82237                -0.857867       -31.47673        -37.74921       -155.1821             -200               0             -200               0
1.82895               -0.8875182       -31.82808        -37.52955       -158.9881             -200               0             -200               0
1.83553               -0.9181574       -32.18413        -37.30995       -162.7934             -200               0             -200               0
1.84211               -0.9498112       -32.54508        -37.09021       -166.5991             -200               0             -200               0
1.84868               -0.9825124       -32.91111        -36.87015       -170.4064             -200               0             -200               0
1.85526                -1.016297       -33.28243        -36.64962       -174.2166             -200               0             -200               0
1.86184                -1.051207       -33.65926        -36.42848       -178.0311             -200               0             -200               0
1.86842                -1.087291       -34.04181        -36.20663        178.1485             -200               0             -200               0
1.875                  -1.124603       -34.43032        -35.98398        174.3208             -200               0             -200               0
1.88158                -1.163204       -34.82501        -35.76049         170.484             -200               0             -200               0
1.88816                -1.203159       -35.22609        -35.53612        166.6366             -200               0             -200               0
1.89474                -1.244545       -35.63379        -35.31088        162.7769             -200               0             -200               0
1.90132                -1.287442        -36.0483        -35.08479        158.9033             -200               0             -200               0
1.90789                -1.331937       -36.46978        -34.85792        155.0141             -200               0             -200               0
1.91447                -1.378128        -36.8984        -34.63033        151.1079             -200               0             -200               0
1.92105                -1.426112       -37.33428        -34.40213        147.1831             -200               0             -200               0
1.92763                   -1.476       -37.77749        -34.17345        143.2384             -200               0             -200               0
1.93421                -1.527904       -38.22809        -33.94443        139.2725             -200               0             -200               0
1.94079                -1.581944       -38.68609        -33.71522        135.2841             -200               0             -200               0
1.94737                -1.638241       -39.15146          -33.486        131.2723             -200               0             -200               0
1.95395                -1.696926       -39.62411        -33.25697        127.2361             -200               0             -200               0
1.96053                -1.758131       -40.10391        -33.02831        123.1746             -200               0             -200               0
1.96711                -1.821993       -40.59066        -32.80024        119.0872             -200               0             -200               0
1.97368                -1.888649       -41.08417        -32.57297        114.9733             -200               0             -200               0
1.98026                -1.958241       -41.58411        -32.34671        110.8324             -200               0             -200               0
1.98684                -2.030913       -42.09016        -32.12167        106.6643             -200               0             -200               0
1.99342                -2.106808       -42.60192        -31.89808        102.4688             -200               0             -200               0
2                      -2.186074       -43.11894        -31.67615        98.24574             -200               0             -200               0
2.00658                -2.268856       -43.64072         -31.4561        93.99521             -200               0             -200               0
2.01316                  -2.3553       -44.16672        -31.23812        89.71733             -200               0             -200               0
2.01974                -2.445556       -44.69635        -31.02242        85.41231             -200               0             -200               0
2.02632                -2.539769       -45.22894         -30.8092        81.08046             -200               0             -200               0
2.03289                -2.638086       -45.76381        -30.59864        76.72218             -200               0             -200               0
2.03947                -2.740657       -46.30022        -30.39093        72.33793             -200               0             -200               0
2.04605                -2.847626       -46.83739        -30.18623        67.92822             -200               0             -200               0
2.05263                -2.959144       -47.37451        -29.98471        63.49363             -200               0             -200               0
2.05921                -3.075358       -47.91071        -29.78653         59.0348             -200               0             -200               0
2.06579                 -3.19642       -48.44508        -29.59182        54.55239             -200               0             -200               0
2.07237                -3.322482       -48.97669        -29.40073        50.04712             -200               0             -200               0
2.07895                -3.453699       -49.50454        -29.21339        45.51972             -200               0             -200               0
2.08553                 -3.59023       -50.02761        -29.02992        40.97095             -200               0             -200               0
2.09211                -3.732236       -50.54483        -28.85042        36.40162             -200               0             -200               0
2.09868                -3.879889       -51.05507        -28.67501        31.81251             -200               0             -200               0
2.10526                -4.033361       -51.55716        -28.50378        27.20445             -200               0             -200               0
2.11184                -4.192836       -52.04987        -28.33681        22.57827             -200               0             -200               0
2.11842                -4.358507       -52.53188         -28.1742         17.9348             -200               0             -200               0
2.125                  -4.530576       -53.00182        -28.01601        13.27487             -200               0             -200               0
2.13158                -4.709258       -53.45822        -27.86232        8.599341             -200               0             -200               0
2.13816                -4.894782       -53.89951        -27.71318         3.90904             -200               0             -200               0
2.14474                -5.087393       -54.32398        -27.56866       -0.795189             -200               0             -200               0
2.15132                 -5.28735        -54.7298        -27.42881       -5.512511             -200               0             -200               0
2.15789                -5.494935       -55.11495        -27.29367       -10.24209             -200               0             -200               0
2.16447                -5.710448       -55.47725        -27.16328       -14.98311             -200               0             -200               0
2.17105                -5.934212       -55.81425        -27.03769       -19.73473             -200               0             -200               0
2.17763                -6.166573       -56.12326        -26.91692       -24.49616             -200               0             -200               0
2.18421                -6.407904       -56.40125        -26.80101       -29.26657             -200               0             -200               0
2.19079                  -6.6586       -56.64485        -26.68997       -34.04516             -200               0             -200               0
2.19737                -6.919087       -56.85023        -26.58384       -38.83114             -200               0             -200               0
2.20395                -7.189813       -57.01306        -26.48264       -43.62372             -200               0             -200               0
2.21053                -7.471258       -57.12843        -26.38636       -48.42213             -200               0             -200               0
2.21711                -7.763921       -57.19071        -26.29504       -53.22558             -200               0             -200               0
2.22368                -8.068322       -57.19346        -26.20868       -58.03331             -200               0             -200               0
2.23026                -8.384995       -57.12929        -26.12728       -62.84455             -200               0             -200               0
2.23684                 -8.71448       -56.98967        -26.05086       -67.65854             -200               0             -200               0
2.24342                -9.057306       -56.76476        -25.97941       -72.47454             -200               0             -200               0
2.25                   -9.413972       -56.44315        -25.91294       -77.29179             -200               0             -200               0
2.25658                -9.784921       -56.01167        -25.85144       -82.10955             -200               0             -200               0
2.26316                 -10.1705       -55.45504         -25.7949       -86.92708             -200               0             -200               0
2.26974                -10.57089        -54.7555        -25.74333       -91.74364             -200               0             -200               0
2.27632                -10.98605       -53.89258        -25.69672        -96.5585             -200               0             -200               0
2.28289                -11.41559       -52.84267        -25.65504       -101.3709             -200               0             -200               0
2.28947                -11.85864       -51.57872         -25.6183       -106.1802             -200               0             -200               0