! TOUCHSTONE file generated by CST MICROWAVE STUDIO
! Date and time: Tue Mar 18 00:01:29 2025
! Project name: oblique.cst
! Parameters = {Tilt=30; Fracture=1; B=12.5; D=160; F=5; Feed=2.85625; L=100; M=50; R=0.384908; S=2; Theta=90; length=57.125; wave=114.25}
! Header version: 2024
! Port assignment regex: !\s*Touchstone port\s*([0-9]+)\s*=\s*(CST MWS port|CST DES external port|CST DES block port)\s*(.+)\s* \(\"(.*)\"\)(\s*mode\s*([0-9]+))?.*
! Touchstone port assignment:
! Touchstone port 1 = CST MWS port 1 ("")
! Touchstone port 2 = CST MWS port 2 ("")
# GHz S DB R 50
1                    -0.02189587       -9.803879        -66.49936        165.8506             -200               0             -200               0
1.0066               -0.02259408       -9.890957        -66.48499        160.0467             -200               0             -200               0
1.0132                -0.0232861       -9.978676        -66.50275        154.3357             -200               0             -200               0
1.0198               -0.02397516       -10.06708        -66.55344        148.7244             -200               0             -200               0
1.0264               -0.02466347        -10.1562        -66.63811        143.2219             -200               0             -200               0
1.033                -0.02535592       -10.24607        -66.75798        137.8395             -200               0             -200               0
1.0396               -0.02605746       -10.33673        -66.91453        132.5915             -200               0             -200               0
1.0462               -0.02677269        -10.4282        -67.10944         127.496             -200               0             -200               0
1.05281              -0.02750731        -10.5205        -67.34465        122.5756             -200               0             -200               0
1.05941              -0.02826829       -10.61365        -67.62226        117.8589             -200               0             -200               0
1.06601              -0.02906006       -10.70764        -67.94454        113.3822             -200               0             -200               0
1.07261              -0.02989042        -10.8025        -68.31376        109.1921             -200               0             -200               0
1.07921              -0.03076416       -10.89821        -68.73192        105.3478             -200               0             -200               0
1.08581              -0.03168784       -10.99477        -69.20036        101.9258             -200               0             -200               0
1.09241              -0.03266557       -11.09215        -69.71882        99.02465             -200               0             -200               0
1.09901              -0.03370314       -11.19036        -70.28409        96.76946             -200               0             -200               0
1.10561              -0.03480341       -11.28935        -70.88748         95.3162             -200               0             -200               0
1.11221               -0.0359698       -11.38911        -71.51096        94.84888             -200               0             -200               0
1.11881              -0.03720428        -11.4896        -72.12167         95.5607             -200               0             -200               0
1.12541              -0.03850785       -11.59081         -72.6663        97.60207             -200               0             -200               0
1.13201              -0.03988204       -11.69269        -73.06992        100.9811             -200               0             -200               0
1.13861              -0.04132517       -11.79522        -73.24837        105.4387             -200               0             -200               0
1.14521              -0.04283464       -11.89838        -73.13861        110.3986             -200               0             -200               0
1.15182              -0.04440914       -12.00214        -72.73153        115.1069             -200               0             -200               0
1.15842              -0.04604421       -12.10648        -72.07728        118.9133             -200               0             -200               0
1.16502              -0.04773723       -12.21139        -71.25754        121.4666             -200               0             -200               0
1.17162              -0.04948239       -12.31686        -70.35181         122.711             -200               0             -200               0
1.17822              -0.05127414       -12.42288         -69.4197        122.7692             -200               0             -200               0
1.18482               -0.0531077       -12.52946        -68.49921        121.8298             -200               0             -200               0
1.19142              -0.05497693       -12.63662        -67.61184        120.0833             -200               0             -200               0
1.19802              -0.05687609       -12.74436        -66.76828        117.6953             -200               0             -200               0
1.20462              -0.05879969       -12.85271        -65.97282        114.8006             -200               0             -200               0
1.21122              -0.06074277       -12.96171        -65.22617         111.506             -200               0             -200               0
1.21782              -0.06270143        -13.0714        -64.52713         107.895             -200               0             -200               0
1.22442              -0.06466984       -13.18183        -63.87361        104.0331             -200               0             -200               0
1.23102              -0.06664614       -13.29303        -63.26311        99.97183             -200               0             -200               0
1.23762              -0.06862924       -13.40507         -62.6931        95.75213             -200               0             -200               0
1.24422              -0.07061499         -13.518        -62.16113        91.40683             -200               0             -200               0
1.25083               -0.0726056       -13.63189        -61.66489        86.96267             -200               0             -200               0
1.25743              -0.07460133       -13.74679        -61.20228        82.44163             -200               0             -200               0
1.26403               -0.0766044       -13.86277        -60.77139        77.86213             -200               0             -200               0
1.27063              -0.07861702       -13.97988        -60.37049        73.23976             -200               0             -200               0
1.27723              -0.08064509        -14.0982        -59.99805        68.58799             -200               0             -200               0
1.28383               -0.0826926       -14.21776        -59.65264        63.91864             -200               0             -200               0
1.29043              -0.08476578       -14.33862        -59.33303        59.24223             -200               0             -200               0
1.29703              -0.08687138       -14.46082        -59.03807        54.56837             -200               0             -200               0
1.30363              -0.08901655       -14.58441        -58.76673         49.9059             -200               0             -200               0
1.31023              -0.09120997       -14.70942        -58.51804        45.26319             -200               0             -200               0
1.31683               -0.0934598       -14.83587        -58.29114        40.64826             -200               0             -200               0
1.32343              -0.09577225       -14.96378        -58.08519         36.0689             -200               0             -200               0
1.33003              -0.09815738       -15.09317        -57.89938        31.53284             -200               0             -200               0
1.33663               -0.1006213       -15.22404        -57.73295        27.04779             -200               0             -200               0
1.34323               -0.1031727       -15.35639        -57.58512        22.62159             -200               0             -200               0
1.34984               -0.1058169       -15.49022        -57.45509        18.26221             -200               0             -200               0
1.35644               -0.1085613       -15.62552        -57.34204        13.97786             -200               0             -200               0
1.36304               -0.1114092       -15.76228        -57.24506        9.776989             -200               0             -200               0
1.36964               -0.1143659       -15.90049        -57.16318        5.668295             -200               0             -200               0
1.37624                -0.117434       -16.04011         -57.0953        1.660734             -200               0             -200               0
1.38284                -0.120615       -16.18116        -57.04019       -2.236556             -200               0             -200               0
1.38944               -0.1239107        -16.3236        -56.99643       -6.014332             -200               0             -200               0
1.39604               -0.1273212       -16.46742        -56.96239        -9.66341             -200               0             -200               0
1.40264                -0.130844       -16.61263        -56.93621       -13.17488             -200               0             -200               0
1.40924               -0.1344785       -16.75922        -56.91575        -16.5404             -200               0             -200               0
1.41584               -0.1382225       -16.90719        -56.89856       -19.75259             -200               0             -200               0
1.42244               -0.1420714       -17.05656        -56.88189       -22.80554             -200               0             -200               0
1.42904               -0.1460222       -17.20733        -56.86268       -25.69535             -200               0             -200               0
1.43564               -0.1500722       -17.35955        -56.83755       -28.42084             -200               0             -200               0
1.44224               -0.1542165       -17.51325        -56.80294       -30.98418             -200               0             -200               0
1.44884               -0.1584517       -17.66847         -56.7551       -33.39159             -200               0             -200               0
1.45545                -0.162776       -17.82527        -56.69033       -35.65387             -200               0             -200               0
1.46205               -0.1671852        -17.9837        -56.60505       -37.78672             -200               0             -200               0
1.46865               -0.1716787       -18.14385        -56.49605       -39.81069             -200               0             -200               0
1.47525               -0.1762556       -18.30579        -56.36068       -41.75078             -200               0             -200               0
1.48185               -0.1809167       -18.46959        -56.19703       -43.63555             -200               0             -200               0
1.48845                -0.185664       -18.63536        -56.00408       -45.49585             -200               0             -200               0
1.49505               -0.1905006       -18.80317        -55.78174       -47.36326             -200               0             -200               0
1.50165               -0.1954318       -18.97314         -55.5309       -49.26844             -200               0             -200               0
1.50825               -0.2004626       -19.14534        -55.25331       -51.23966             -200               0             -200               0
1.51485               -0.2056035       -19.31987        -54.95142       -53.30148             -200               0             -200               0
1.52145               -0.2108614       -19.49683        -54.62825       -55.47394             -200               0             -200               0
1.52805                -0.216249       -19.67631        -54.28714       -57.77223             -200               0             -200               0
1.53465               -0.2217778       -19.85839        -53.93154       -60.20659             -200               0             -200               0
1.54125               -0.2274605       -20.04314        -53.56491       -62.78276             -200               0             -200               0
1.54785                -0.233313       -20.23064        -53.19054       -65.50249             -200               0             -200               0
1.55446               -0.2393491       -20.42095        -52.81146       -68.36419             -200               0             -200               0
1.56106               -0.2455851       -20.61412         -52.4304       -71.36367             -200               0             -200               0
1.56766                -0.252038        -20.8102        -52.04977       -74.49476             -200               0             -200               0
1.57426               -0.2587222       -21.00923        -51.67164       -77.74988             -200               0             -200               0
1.58086               -0.2656553       -21.21122        -51.29776       -81.12057             -200               0             -200               0
1.58746               -0.2728523       -21.41622        -50.92958       -84.59784             -200               0             -200               0
1.59406               -0.2803292       -21.62421         -50.5683       -88.17247             -200               0             -200               0
1.60066               -0.2880991       -21.83521        -50.21488       -91.83528             -200               0             -200               0
1.60726               -0.2961761       -22.04923        -49.87005       -95.57721             -200               0             -200               0
1.61386                -0.304573       -22.26624        -49.53439       -99.38952             -200               0             -200               0
1.62046                  -0.3133       -22.48627        -49.20831       -103.2638             -200               0             -200               0
1.62706               -0.3223666       -22.70928        -48.89211       -107.1919             -200               0             -200               0
1.63366               -0.3317829       -22.93529        -48.58595       -111.1663             -200               0             -200               0
1.64026               -0.3415557       -23.16429        -48.28991       -115.1797             -200               0             -200               0
1.64686                 -0.35169       -23.39628          -48.004       -119.2252             -200               0             -200               0
1.65347               -0.3621906       -23.63128        -47.72814       -123.2963             -200               0             -200               0
1.66007               -0.3730616        -23.8693        -47.46219       -127.3868             -200               0             -200               0
1.66667               -0.3843063       -24.11039        -47.20596       -131.4909             -200               0             -200               0
1.67327               -0.3959268       -24.35456         -46.9592        -135.603             -200               0             -200               0
1.67987               -0.4079252       -24.60189        -46.72164       -139.7179             -200               0             -200               0
1.68647               -0.4203039       -24.85245        -46.49294       -143.8306             -200               0             -200               0
1.69307               -0.4330661       -25.10631        -46.27273       -147.9364             -200               0             -200               0
1.69967               -0.4462139       -25.36358        -46.06059       -152.0309             -200               0             -200               0
1.70627                -0.459752       -25.62437        -45.85606       -156.1098             -200               0             -200               0
1.71287               -0.4736867       -25.88881        -45.65866       -160.1691             -200               0             -200               0
1.71947               -0.4880243       -26.15704        -45.46784       -164.2053             -200               0             -200               0
1.72607               -0.5027758       -26.42921        -45.28303       -168.2148             -200               0             -200               0
1.73267               -0.5179515       -26.70551        -45.10361       -172.1946             -200               0             -200               0
1.73927               -0.5335668        -26.9861        -44.92892       -176.1419             -200               0             -200               0
1.74587               -0.5496387       -27.27116        -44.75825        179.9458             -200               0             -200               0
1.75248               -0.5661875       -27.56089        -44.59088        176.0704             -200               0             -200               0
1.75908               -0.5832379       -27.85549        -44.42602        172.2335             -200               0             -200               0
1.76568               -0.6008148       -28.15515        -44.26287        168.4364             -200               0             -200               0
1.77228               -0.6189512       -28.46007        -44.10059        164.6796             -200               0             -200               0
1.77888               -0.6376791       -28.77045        -43.93834        160.9631             -200               0             -200               0
1.78548               -0.6570357       -29.08647        -43.77525        157.2864             -200               0             -200               0
1.79208               -0.6770614       -29.40832        -43.61045        153.6483             -200               0             -200               0
1.79868               -0.6977993       -29.73617        -43.44309        150.0469             -200               0             -200               0
1.80528               -0.7192955       -30.07018        -43.27235        146.4797             -200               0             -200               0
1.81188               -0.7415982       -30.41051        -43.09742        142.9436             -200               0             -200               0
1.81848               -0.7647604       -30.75728        -42.91757        139.4345             -200               0             -200               0
1.82508               -0.7888328       -31.11063        -42.73214        135.9481             -200               0             -200               0
1.83168               -0.8138712       -31.47066        -42.54055        132.4793             -200               0             -200               0
1.83828               -0.8399332       -31.83747         -42.3423        129.0227             -200               0             -200               0
1.84488               -0.8670742       -32.21113        -42.13702        125.5723             -200               0             -200               0
1.85149                -0.895356       -32.59172        -41.92446        122.1219             -200               0             -200               0
1.85809               -0.9248365       -32.97928        -41.70446        118.6653             -200               0             -200               0
1.86469               -0.9555755       -33.37387        -41.47702         115.196             -200               0             -200               0
1.87129               -0.9876355       -33.77551        -41.24224        111.7079             -200               0             -200               0
1.87789                -1.021077       -34.18424        -41.00036        108.1949             -200               0             -200               0
1.88449                 -1.05596       -34.60006        -40.75169        104.6513             -200               0             -200               0
1.89109                -1.092349       -35.02301        -40.49668        101.0718             -200               0             -200               0
1.89769                -1.130304       -35.45309        -40.23583        97.45165             -200               0             -200               0
1.90429                 -1.16989       -35.89033        -39.96973        93.78657             -200               0             -200               0
1.91089                -1.211171       -36.33474          -39.699        90.07294             -200               0             -200               0
1.91749                -1.254212       -36.78636        -39.42433        86.30772             -200               0             -200               0
1.92409                 -1.29908       -37.24521        -39.14641        82.48849             -200               0             -200               0
1.93069                -1.345846       -37.71134        -38.86594         78.6134             -200               0             -200               0
1.93729                 -1.39458        -38.1848        -38.58363        74.68116             -200               0             -200               0
1.94389                 -1.44536       -38.66566        -38.30017        70.69102             -200               0             -200               0
1.9505                 -1.498263       -39.15399        -38.01623        66.64269             -200               0             -200               0
1.9571                 -1.553375       -39.64986        -37.73244        62.53628             -200               0             -200               0
1.9637                 -1.610784       -40.15338        -37.44943        58.37232             -200               0             -200               0
1.9703                 -1.670588       -40.66464        -37.16775        54.15162             -200               0             -200               0
1.9769                 -1.732888       -41.18376        -36.88795        49.87527             -200               0             -200               0
1.9835                 -1.797794       -41.71084        -36.61052        45.54459             -200               0             -200               0
1.9901                 -1.865426       -42.24602         -36.3359        41.16109             -200               0             -200               0
1.9967                 -1.935912       -42.78938        -36.06452        36.72639             -200               0             -200               0
2.0033                 -2.009389       -43.34105        -35.79674        32.24224             -200               0             -200               0
2.0099                 -2.086007        -43.9011        -35.53291        27.71047             -200               0             -200               0
2.0165                 -2.165926       -44.46962        -35.27332        23.13292             -200               0             -200               0
2.0231                 -2.249321       -45.04664        -35.01824        18.51153             -200               0             -200               0
2.0297                 -2.336373       -45.63221        -34.76792        13.84816             -200               0             -200               0
2.0363                 -2.427285       -46.22629        -34.52256        9.144739             -200               0             -200               0
2.0429                 -2.522266       -46.82882        -34.28236        4.403124             -200               0             -200               0
2.0495                 -2.621546       -47.43969        -34.04747      -0.3748388             -200               0             -200               0
2.05611                -2.725365       -48.05873        -33.81802       -5.187343             -200               0             -200               0
2.06271                -2.833982       -48.68569        -33.59416       -10.03263             -200               0             -200               0
2.06931                -2.947669       -49.32026        -33.37597       -14.90898             -200               0             -200               0
2.07591                -3.066719       -49.96201        -33.16354       -19.81475             -200               0             -200               0
2.08251                -3.191436       -50.61045        -32.95696       -24.74832             -200               0             -200               0
2.08911                -3.322145       -51.26496        -32.75627       -29.70815             -200               0             -200               0
2.09571                -3.459189       -51.92482        -32.56154       -34.69274             -200               0             -200               0
2.10231                -3.602929       -52.58917         -32.3728       -39.70066             -200               0             -200               0
2.10891                -3.753746       -53.25701        -32.19008       -44.73051             -200               0             -200               0
2.11551                 -3.91204       -53.92717        -32.01342       -49.78097             -200               0             -200               0
2.12211                -4.078237       -54.59834        -31.84282       -54.85076             -200               0             -200               0
2.12871                 -4.25278       -55.26899        -31.67831       -59.93863             -200               0             -200               0
2.13531                 -4.43614       -55.93741        -31.51988       -65.04342             -200               0             -200               0
2.14191                -4.628813       -56.60165        -31.36755       -70.16396             -200               0             -200               0
2.14851                -4.831322       -57.25949        -31.22131       -75.29918             -200               0             -200               0
2.15512                 -5.04422       -57.90844        -31.08116         -80.448             -200               0             -200               0
2.16172                -5.268094       -58.54568        -30.94709       -85.60942             -200               0             -200               0
2.16832                -5.503566       -59.16804        -30.81911       -90.78244             -200               0             -200               0
2.17492                -5.751294        -59.7719        -30.69718       -95.96611             -200               0             -200               0
2.18152                -6.011981       -60.35322        -30.58132       -101.1595             -200               0             -200               0
2.18812                -6.286374       -60.90737        -30.47149       -106.3618             -200               0             -200               0
2.19472                -6.575269       -61.42908         -30.3677        -111.572             -200               0             -200               0
2.20132                -6.879517       -61.91235        -30.26992       -116.7894             -200               0             -200               0
2.20792                -7.200026       -62.35029        -30.17815       -122.0131             -200               0             -200               0
2.21452                -7.537765       -62.73495        -30.09236       -127.2424             -200               0             -200               0
2.22112                -7.893767       -63.05716        -30.01254       -132.4764             -200               0             -200               0
2.22772                -8.269126       -63.30619        -29.93869       -137.7144             -200               0             -200               0
2.23432                -8.665004       -63.46954        -29.87077       -142.9557             -200               0             -200               0
2.24092                 -9.08261       -63.53246        -29.80878       -148.1995             -200               0             -200               0
2.24752                -9.523192       -63.47749        -29.75271       -153.4451             -200               0             -200               0
2.25413                -9.988003       -63.28385        -29.70254       -158.6918             -200               0             -200               0
2.26073                -10.47825       -62.92664        -29.65826        -163.939             -200               0             -200               0
2.26733                  -10.995       -62.37591        -29.61985       -169.1858             -200               0             -200               0
2.27393                -11.53907       -61.59554         -29.5873       -174.4317             -200               0             -200               0
2.28053                -12.11076       -60.54181         -29.5606       -179.6759             -200               0             -200               0
2.28713                -12.70955       -59.16205        -29.53974        175.0822             -200               0             -200               0
2.29373                -13.33357        -57.3931         -29.5247        169.8433             -200               0             -200               0