! TOUCHSTONE file generated by CST MICROWAVE STUDIO
! Date and time: Tue Mar 18 00:01:25 2025
! Project name: oblique.cst
! Parameters = {Tilt=30; Fracture=1; B=12.5; D=160; F=5; Feed=2.85625; L=100; M=50; R=0.384908; S=1; Theta=90; length=57.125; wave=114.25}
! Header version: 2024
! Port assignment regex: !\s*Touchstone port\s*([0-9]+)\s*=\s*(CST MWS port|CST DES external port|CST DES block port)\s*(.+)\s* \(\"(.*)\"\)(\s*mode\s*([0-9]+))?.*
! Touchstone port assignment:
! Touchstone port 1 = CST MWS port 1 ("")
! Touchstone port 2 = CST MWS port 2 ("")
# GHz S DB R 50
1                    -0.02211675       -9.802766        -66.52405        165.3545             -200               0             -200               0
1.0066               -0.02277866       -9.889774        -66.51895        159.5938             -200               0             -200               0
1.0132                -0.0234342       -9.977471        -66.54601        153.9289             -200               0             -200               0
1.0198               -0.02408818        -10.0659        -66.60606        148.3673             -200               0             -200               0
1.0264               -0.02474493       -10.15508        -66.70013        142.9187             -200               0             -200               0
1.033                -0.02540886       -10.24507        -66.82947        137.5952             -200               0             -200               0
1.0396               -0.02608722       -10.33587        -66.99552        132.4122             -200               0             -200               0
1.0462               -0.02678517       -10.42751        -67.19994        127.3889             -200               0             -200               0
1.05281              -0.02750926          -10.52         -67.4446        122.5494             -200               0             -200               0
1.05941              -0.02826714       -10.61335         -67.7315        117.9243             -200               0             -200               0
1.06601              -0.02906398       -10.70756        -68.06274        113.5519             -200               0             -200               0
1.07261              -0.02990737       -10.80263        -68.44028        109.4814             -200               0             -200               0
1.07921               -0.0308014       -10.89853        -68.86572        105.7753             -200               0             -200               0
1.08581              -0.03175385       -10.99526        -69.33966        102.5138             -200               0             -200               0
1.09241              -0.03276757       -11.09278        -69.86078        99.79894             -200               0             -200               0
1.09901              -0.03384666       -11.19108        -70.42422        97.75892             -200               0             -200               0
1.10561              -0.03499507       -11.29013        -71.01885        96.54971             -200               0             -200               0
1.11221              -0.03621299       -11.38988        -71.62328        96.34838             -200               0             -200               0
1.11881              -0.03750185       -11.49031        -72.20073        97.32719             -200               0             -200               0
1.12541              -0.03886241       -11.59139        -72.69472        99.59346             -200               0             -200               0
1.13201              -0.04029254       -11.69308        -73.03109        103.0891             -200               0             -200               0
1.13861              -0.04178918       -11.79536        -73.13398        107.4879             -200               0             -200               0
1.14521              -0.04335053        -11.8982        -72.95575        112.1914             -200               0             -200               0
1.15182              -0.04497225       -12.00157          -72.502        116.4993             -200               0             -200               0
1.15842              -0.04664909       -12.10548        -71.82834        119.8593             -200               0             -200               0
1.16502              -0.04837527        -12.2099         -71.0122        122.0036             -200               0             -200               0
1.17162              -0.05014619       -12.31484        -70.12482        122.9163             -200               0             -200               0
1.17822              -0.05195397        -12.4203        -69.21848        122.7249             -200               0             -200               0
1.18482              -0.05379401       -12.52629        -68.32632        121.6069             -200               0             -200               0
1.19142              -0.05565988       -12.63284        -67.46714         119.737             -200               0             -200               0
1.19802              -0.05754498       -12.73998        -66.65035         117.267             -200               0             -200               0
1.20462              -0.05944493       -12.84773        -65.87978        114.3207             -200               0             -200               0
1.21122              -0.06135406       -12.95615        -65.15604        110.9967             -200               0             -200               0
1.21782              -0.06326906       -13.06528        -64.47804        107.3727             -200               0             -200               0
1.22442              -0.06518646       -13.17518        -63.84386        103.5101             -200               0             -200               0
1.23102              -0.06710413        -13.2859        -63.25122        99.45748             -200               0             -200               0
1.23762              -0.06902181        -13.3975        -62.69777        95.25359             -200               0             -200               0
1.24422              -0.07093882       -13.51004        -62.18123        90.92984             -200               0             -200               0
1.25083              -0.07285678       -13.62359        -61.69943        86.51189             -200               0             -200               0
1.25743               -0.0747785       -13.73821        -61.25042        82.02098             -200               0             -200               0
1.26403              -0.07670733       -13.85396        -60.83237        77.47499             -200               0             -200               0
1.27063              -0.07864814        -13.9709        -60.44365        72.88915             -200               0             -200               0
1.27723              -0.08060557       -14.08907        -60.08279        68.27669             -200               0             -200               0
1.28383              -0.08258695       -14.20853        -59.74845        63.64924             -200               0             -200               0
1.29043               -0.0845986       -14.32933        -59.43942        59.01727             -200               0             -200               0
1.29703               -0.0866489       -14.45148        -59.15459        54.39032             -200               0             -200               0
1.30363              -0.08874523       -14.57504        -58.89296        49.77727             -200               0             -200               0
1.31023              -0.09089542           -14.7        -58.65359        45.18649             -200               0             -200               0
1.31683              -0.09310823       -14.82641        -58.43561        40.62608             -200               0             -200               0
1.32343              -0.09539092       -14.95425        -58.23819         36.1039             -200               0             -200               0
1.33003               -0.0977498       -15.08354        -58.06051        31.62778             -200               0             -200               0
1.33663               -0.1001936       -15.21427         -57.9018        27.20554             -200               0             -200               0
1.34323               -0.1027264       -15.34643        -57.76124         22.8451             -200               0             -200               0
1.34984               -0.1053546       -15.48002        -57.63801        18.55453             -200               0             -200               0
1.35644                -0.108082       -15.61501        -57.53122         14.3421             -200               0             -200               0
1.36304                -0.110912        -15.7514        -57.43993        10.21631             -200               0             -200               0
1.36964               -0.1138459       -15.88916         -57.3631         6.18586             -200               0             -200               0
1.37624                -0.116885       -16.02828        -57.29954        2.259637             -200               0             -200               0
1.38284               -0.1200303       -16.16875        -57.24792       -1.553367             -200               0             -200               0
1.38944               -0.1232796       -16.31056        -57.20675       -5.244172             -200               0             -200               0
1.39604               -0.1266311        -16.4537        -57.17427       -8.803988             -200               0             -200               0
1.40264               -0.1300825       -16.59818        -57.14851       -12.22448             -200               0             -200               0
1.40924               -0.1336306       -16.74401        -57.12721       -15.49809             -200               0             -200               0
1.41584               -0.1372709       -16.89121        -57.10783       -18.61846             -200               0             -200               0
1.42244               -0.1409997       -17.03979        -57.08751       -21.58095             -200               0             -200               0
1.42904               -0.1448133        -17.1898        -57.06312       -24.38323             -200               0             -200               0
1.43564               -0.1487066       -17.34128        -57.03129       -27.02589             -200               0             -200               0
1.44224               -0.1526779       -17.49428        -56.98847       -29.51312             -200               0             -200               0
1.44884               -0.1567231       -17.64886        -56.93105       -31.85324             -200               0             -200               0
1.45545                -0.160839       -17.80509        -56.85552        -34.0591             -200               0             -200               0
1.46205               -0.1650258       -17.96304        -56.75858       -36.14823             -200               0             -200               0
1.46865               -0.1692836        -18.1228        -56.63741       -38.14261             -200               0             -200               0
1.47525               -0.1736127       -18.28447        -56.48978       -40.06805             -200               0             -200               0
1.48185               -0.1780162       -18.44812        -56.31427       -41.95318             -200               0             -200               0
1.48845               -0.1824978       -18.61385        -56.11031       -43.82809             -200               0             -200               0
1.49505               -0.1870642       -18.78176        -55.87825       -45.72284             -200               0             -200               0
1.50165               -0.1917213       -18.95195        -55.61932       -47.66593             -200               0             -200               0
1.50825               -0.1964785       -19.12451        -55.33551       -49.68299             -200               0             -200               0
1.51485               -0.2013458       -19.29953        -55.02943       -51.79578             -200               0             -200               0
1.52145               -0.2063348       -19.47709        -54.70411       -54.02156             -200               0             -200               0
1.52805               -0.2114583       -19.65728        -54.36282       -56.37292             -200               0             -200               0
1.53465               -0.2167299       -19.84017         -54.0089       -58.85791             -200               0             -200               0
1.54125                -0.222164       -20.02582        -53.64558       -61.48045             -200               0             -200               0
1.54785               -0.2277764        -20.2143        -53.27595       -64.24092             -200               0             -200               0
1.55446               -0.2335824       -20.40565        -52.90281       -67.13678             -200               0             -200               0
1.56106               -0.2395975        -20.5999        -52.52866       -70.16322             -200               0             -200               0
1.56766               -0.2458381       -20.79711        -52.15571       -73.31374             -200               0             -200               0
1.57426               -0.2523178       -20.99728        -51.78583       -76.58069             -200               0             -200               0
1.58086               -0.2590547       -21.20044         -51.4206       -79.95566             -200               0             -200               0
1.58746               -0.2660601       -21.40659        -51.06134       -83.42985             -200               0             -200               0
1.59406               -0.2733498       -21.61573         -50.7091       -86.99431             -200               0             -200               0
1.60066               -0.2809323       -21.82788        -50.36474       -90.64016             -200               0             -200               0
1.60726               -0.2888226       -22.04302        -50.02889       -94.35867             -200               0             -200               0
1.61386               -0.2970289       -22.26115        -49.70207       -98.14142             -200               0             -200               0
1.62046               -0.3055591       -22.48228         -49.3846       -101.9803             -200               0             -200               0
1.62706               -0.3144215        -22.7064        -49.07673       -105.8676             -200               0             -200               0
1.63366               -0.3236219       -22.93351        -48.77857        -109.796             -200               0             -200               0
1.64026               -0.3331641       -23.16364        -48.49015       -113.7584             -200               0             -200               0
1.64686               -0.3430529        -23.3968        -48.21142       -117.7482             -200               0             -200               0
1.65347                -0.353292       -23.63302        -47.94228       -121.7592             -200               0             -200               0
1.66007               -0.3638831       -23.87236        -47.68253       -125.7855             -200               0             -200               0
1.66667                -0.374829       -24.11485        -47.43196       -129.8215             -200               0             -200               0
1.67327               -0.3861309       -24.36057        -47.19027       -133.8618             -200               0             -200               0
1.67987               -0.3977923       -24.60959        -46.95714       -137.9014             -200               0             -200               0
1.68647               -0.4098163       -24.86203        -46.73219       -141.9357             -200               0             -200               0
1.69307               -0.4222066       -25.11798        -46.51501       -145.9602             -200               0             -200               0
1.69967               -0.4349688       -25.37758        -46.30514       -149.9707             -200               0             -200               0
1.70627               -0.4481083       -25.64095        -46.10207       -153.9634             -200               0             -200               0
1.71287               -0.4616363       -25.90826        -45.90527       -157.9346             -200               0             -200               0
1.71947               -0.4755632       -26.17968        -45.71416       -161.8811             -200               0             -200               0
1.72607               -0.4899018       -26.45536        -45.52811          -165.8             -200               0             -200               0
1.73267               -0.5046694        -26.7355        -45.34648       -169.6886             -200               0             -200               0
1.73927               -0.5198843       -27.02028        -45.16856       -173.5447             -200               0             -200               0
1.74587               -0.5355689        -27.3099        -44.99363       -177.3665             -200               0             -200               0
1.75248               -0.5517484       -27.60455        -44.82092        178.8473             -200               0             -200               0
1.75908               -0.5684525       -27.90443        -44.64966        175.0977             -200               0             -200               0
1.76568               -0.5857125       -28.20974        -44.47904        171.3848             -200               0             -200               0
1.77228               -0.6035639       -28.52066        -44.30823        167.7087             -200               0             -200               0
1.77888               -0.6220437        -28.8374        -44.13643        164.0683             -200               0             -200               0
1.78548                -0.641196        -29.1601        -43.96282        160.4624             -200               0             -200               0
1.79208               -0.6610626       -29.48896         -43.7866        156.8888             -200               0             -200               0
1.79868               -0.6816896       -29.82413        -43.60701         153.345             -200               0             -200               0
1.80528               -0.7031292       -30.16576        -43.42334        149.8275             -200               0             -200               0
1.81188                -0.725431       -30.51397        -43.23492        146.3326             -200               0             -200               0
1.81848               -0.7486482       -30.86889        -43.04118        142.8558             -200               0             -200               0
1.82508               -0.7728381       -31.23064         -42.8416        139.3923             -200               0             -200               0
1.83168               -0.7980554       -31.59929        -42.63579        135.9367             -200               0             -200               0
1.83828               -0.8243592       -31.97495        -42.42343        132.4835             -200               0             -200               0
1.84488               -0.8518089       -32.35767        -42.20435        129.0268             -200               0             -200               0
1.85149               -0.8804642       -32.74751        -41.97845        125.5608             -200               0             -200               0
1.85809               -0.9103872       -33.14454        -41.74578        122.0798             -200               0             -200               0
1.86469               -0.9416391       -33.54878        -41.50648        118.5778             -200               0             -200               0
1.87129               -0.9742834       -33.96028        -41.26079        115.0496             -200               0             -200               0
1.87789                -1.008383       -34.37907        -41.00907        111.4899             -200               0             -200               0
1.88449                -1.044003       -34.80517        -40.75175        107.8941             -200               0             -200               0
1.89109                 -1.08121       -35.23861        -40.48931        104.2579             -200               0             -200               0
1.89769                -1.120071       -35.67943        -40.22231        100.5776             -200               0             -200               0
1.90429                -1.160653       -36.12764        -39.95137        96.84998             -200               0             -200               0
1.91089                -1.203029       -36.58326        -39.67711         93.0725             -200               0             -200               0
1.91749                -1.247272       -37.04635        -39.40018        89.24304             -200               0             -200               0
1.92409                -1.293455       -37.51694        -39.12123        85.36008             -200               0             -200               0
1.93069                -1.341661       -37.99507        -38.84092        81.42257             -200               0             -200               0
1.93729                -1.391972       -38.48079        -38.55988        77.42993             -200               0             -200               0
1.94389                -1.444476       -38.97415        -38.27873        73.38202             -200               0             -200               0
1.9505                 -1.499266        -39.4752        -37.99807        69.27906             -200               0             -200               0
1.9571                  -1.55644       -39.98401        -37.71845         65.1216             -200               0             -200               0
1.9637                 -1.616102       -40.50061         -37.4404         60.9105             -200               0             -200               0
1.9703                 -1.678366       -41.02507        -37.16441        56.64682             -200               0             -200               0
1.9769                 -1.743349       -41.55742        -36.89093        52.33186             -200               0             -200               0
1.9835                 -1.811179       -42.09771        -36.62037        47.96707             -200               0             -200               0
1.9901                 -1.881994       -42.64595        -36.35313          43.554             -200               0             -200               0
1.9967                 -1.955937       -43.20215        -36.08955        39.09434             -200               0             -200               0
2.0033                 -2.033164       -43.76627        -35.82993        34.58981             -200               0             -200               0
2.0099                  -2.11384       -44.33827        -35.57456        30.04219             -200               0             -200               0
2.0165                 -2.198143       -44.91806        -35.32368         25.4533             -200               0             -200               0
2.0231                 -2.286259       -45.50551        -35.07753        20.82494             -200               0             -200               0
2.0297                 -2.378387       -46.10045        -34.83629        16.15892             -200               0             -200               0
2.0363                 -2.474739       -46.70263        -34.60013        11.45704             -200               0             -200               0
2.0429                 -2.575537       -47.31177        -34.36921        6.721051             -200               0             -200               0
2.0495                 -2.681017        -47.9275        -34.14367        1.952687             -200               0             -200               0
2.05611                -2.791428       -48.54938         -33.9236       -2.846363             -200               0             -200               0
2.06271                -2.907031       -49.17688        -33.70912       -7.674455             -200               0             -200               0
2.06931                -3.028103       -49.80936        -33.50029       -12.52999             -200               0             -200               0
2.07591                 -3.15493       -50.44613        -33.29719       -17.41143             -200               0             -200               0
2.08251                -3.287817       -51.08633        -33.09988       -22.31725             -200               0             -200               0
2.08911                 -3.42708       -51.72898         -32.9084       -27.24603             -200               0             -200               0
2.09571                -3.573053       -52.37301        -32.72279       -32.19636             -200               0             -200               0
2.10231                -3.726081       -53.01716        -32.54309       -37.16688             -200               0             -200               0
2.10891                 -3.88653       -53.66001         -32.3693        -42.1563             -200               0             -200               0
2.11551                 -4.05478           -54.3        -32.20145       -47.16335             -200               0             -200               0
2.12211                -4.231226       -54.93534        -32.03955       -52.18683             -200               0             -200               0
2.12871                -4.416287       -55.56403        -31.88361       -57.22557             -200               0             -200               0
2.13531                -4.610395       -56.18387        -31.73361       -62.27845             -200               0             -200               0
2.14191                -4.814007       -56.79234        -31.58957       -67.34436             -200               0             -200               0
2.14851                -5.027598       -57.38669        -31.45148       -72.42227             -200               0             -200               0
2.15512                -5.251669        -57.9638        -31.31932       -77.51114             -200               0             -200               0
2.16172                -5.486741       -58.52019        -31.19308       -82.61001             -200               0             -200               0
2.16832                -5.733365       -59.05199        -31.07276       -87.71791             -200               0             -200               0
2.17492                -5.992114       -59.55481        -30.95834       -92.83393             -200               0             -200               0
2.18152                -6.263591       -60.02375         -30.8498       -97.95715             -200               0             -200               0
2.18812                -6.548427       -60.45325        -30.74712       -103.0867             -200               0             -200               0
2.19472                -6.847279       -60.83707        -30.65029       -108.2218             -200               0             -200               0
2.20132                -7.160833       -61.16806        -30.55928       -113.3615             -200               0             -200               0
2.20792                -7.489799       -61.43812        -30.47408        -118.505             -200               0             -200               0
2.21452                -7.834905       -61.63796        -30.39467       -123.6516             -200               0             -200               0
2.22112                -8.196892       -61.75693        -30.32102       -128.8005             -200               0             -200               0
2.22772                -8.576497       -61.78274        -30.25312       -133.9508             -200               0             -200               0
2.23432                -8.974433       -61.70118        -30.19093        -139.102             -200               0             -200               0
2.24092                -9.391357        -61.4957        -30.13445       -144.2531             -200               0             -200               0
2.24752                -9.827828       -61.14711        -30.08364       -149.4035             -200               0             -200               0
2.25413                -10.28423       -60.63293        -30.03849       -154.5525             -200               0             -200               0
2.26073                -10.76067       -59.92698        -29.99897       -159.6992             -200               0             -200               0
2.26733                -11.25686        -58.9987        -29.96505       -164.8431             -200               0             -200               0
2.27393                -11.77188       -57.81262        -29.93672       -169.9834             -200               0             -200               0
2.28053                 -12.3039       -56.32797        -29.91396       -175.1194             -200               0             -200               0
2.28713                -12.84981       -54.49862        -29.89672        179.7496             -200               0             -200               0
2.29373                 -13.4047       -52.27371          -29.885        174.6243             -200               0             -200               0