! TOUCHSTONE file generated by CST MICROWAVE STUDIO
! Date and time: Tue Mar 18 00:00:43 2025
! Project name: oblique.cst
! Parameters = {Tilt=30; Fracture=1; B=10; D=160; F=5; Feed=2.85625; L=100; M=30; R=0.384908; S=1; Theta=90; length=57.125; wave=114.25}
! Header version: 2024
! Port assignment regex: !\s*Touchstone port\s*([0-9]+)\s*=\s*(CST MWS port|CST DES external port|CST DES block port)\s*(.+)\s* \(\"(.*)\"\)(\s*mode\s*([0-9]+))?.*
! Touchstone port assignment:
! Touchstone port 1 = CST MWS port 1 ("")
! Touchstone port 2 = CST MWS port 2 ("")
# GHz S DB R 50
1                    -0.02006252       -9.793502        -68.54639       -162.9535             -200               0             -200               0
1.0066               -0.02091903       -9.882092        -68.37649       -167.3357             -200               0             -200               0
1.0132                -0.0218173       -9.971045         -68.2316       -171.6603             -200               0             -200               0
1.0198               -0.02275174       -10.06035        -68.11116       -175.9169             -200               0             -200               0
1.0264               -0.02371824       -10.14999        -68.01461        179.9052             -200               0             -200               0
1.033                 -0.0247087       -10.23996        -67.94137        175.8178             -200               0             -200               0
1.0396               -0.02571754       -10.33028         -67.8908        171.8334             -200               0             -200               0
1.0462               -0.02673831       -10.42095        -67.86218        167.9657             -200               0             -200               0
1.05281              -0.02776491         -10.512        -67.85463        164.2296             -200               0             -200               0
1.05941              -0.02879094       -10.60347        -67.86705        160.6411             -200               0             -200               0
1.06601              -0.02981189       -10.69537        -67.89806        157.2179             -200               0             -200               0
1.07261              -0.03082207       -10.78776         -67.9459        153.9786             -200               0             -200               0
1.07921              -0.03181905       -10.88069         -68.0083        150.9429             -200               0             -200               0
1.08581              -0.03279991       -10.97421         -68.0824        148.1315             -200               0             -200               0
1.09241              -0.03376356       -11.06837        -68.16457        145.5645             -200               0             -200               0
1.09901              -0.03470885       -11.16324        -68.25028        143.2612             -200               0             -200               0
1.10561              -0.03563718       -11.25886        -68.33404        141.2379             -200               0             -200               0
1.11221              -0.03655146       -11.35532        -68.40927         139.506             -200               0             -200               0
1.11881              -0.03745417       -11.45264        -68.46842        138.0694             -200               0             -200               0
1.12541              -0.03835149        -11.5509        -68.50317        136.9212             -200               0             -200               0
1.13201              -0.03924812       -11.65013        -68.50479        136.0415             -200               0             -200               0
1.13861              -0.04014995       -11.75039        -68.46483        135.3951             -200               0             -200               0
1.14521              -0.04106459        -11.8517        -68.37592         134.931             -200               0             -200               0
1.15182              -0.04200212       -11.95409        -68.23259        134.5849             -200               0             -200               0
1.15842              -0.04296789       -12.05759        -68.03201        134.2833             -200               0             -200               0
1.16502              -0.04397085       -12.16221        -67.77435        133.9501             -200               0             -200               0
1.17162              -0.04502008       -12.26794        -67.46279         133.513             -200               0             -200               0
1.17822              -0.04612295       -12.37479        -67.10298        132.9103             -200               0             -200               0
1.18482              -0.04728697       -12.48275        -66.70233        132.0943             -200               0             -200               0
1.19142              -0.04851832       -12.59179        -66.26916        131.0329             -200               0             -200               0
1.19802              -0.04982515        -12.7019        -65.81187        129.7092             -200               0             -200               0
1.20462              -0.05120929       -12.81303        -65.33841         128.119             -200               0             -200               0
1.21122              -0.05267542       -12.92517        -64.85586        126.2683             -200               0             -200               0
1.21782              -0.05422669       -13.03827        -64.37027        124.1698             -200               0             -200               0
1.22442              -0.05586273       -13.15231        -63.88662        121.8411             -200               0             -200               0
1.23102              -0.05758533       -13.26723        -63.40892         119.302             -200               0             -200               0
1.23762               -0.0593912       -13.38301        -62.94028        116.5735             -200               0             -200               0
1.24422              -0.06127821       -13.49963        -62.48304        113.6762             -200               0             -200               0
1.25083              -0.06324142       -13.61705        -62.03895        110.6303             -200               0             -200               0
1.25743              -0.06527869       -13.73526        -61.60923        107.4548             -200               0             -200               0
1.26403              -0.06738089       -13.85425        -61.19473        104.1673             -200               0             -200               0
1.27063              -0.06954211       -13.97401        -60.79595        100.7842             -200               0             -200               0
1.27723              -0.07175783       -14.09456        -60.41316        97.32047             -200               0             -200               0
1.28383               -0.0740187       -14.21591        -60.04645        93.78998             -200               0             -200               0
1.29043               -0.0763177       -14.33809        -59.69572        90.20538             -200               0             -200               0
1.29703              -0.07864896       -14.46113        -59.36078        86.57832             -200               0             -200               0
1.30363              -0.08100397       -14.58508        -59.04134        82.91954             -200               0             -200               0
1.31023              -0.08337996          -14.71        -58.73704        79.23898             -200               0             -200               0
1.31683              -0.08577005       -14.83596        -58.44742        75.54587             -200               0             -200               0
1.32343              -0.08817157       -14.96302        -58.17201        71.84884             -200               0             -200               0
1.33003              -0.09058159       -15.09125        -57.91025        68.15595             -200               0             -200               0
1.33663              -0.09300027       -15.22076        -57.66154        64.47477             -200               0             -200               0
1.34323              -0.09542596        -15.3516        -57.42525        60.81244             -200               0             -200               0
1.34984              -0.09786311       -15.48389        -57.20066        57.17569             -200               0             -200               0
1.35644               -0.1003162        -15.6177        -56.98704        53.57084             -200               0             -200               0
1.36304               -0.1027878       -15.75311        -56.78358        50.00384             -200               0             -200               0
1.36964               -0.1052857       -15.89021         -56.5894        46.48023             -200               0             -200               0
1.37624               -0.1078192       -16.02908        -56.40358         43.0051             -200               0             -200               0
1.38284               -0.1103972       -16.16978        -56.22513        39.58311             -200               0             -200               0
1.38944               -0.1130309       -16.31239        -56.05297        36.21836             -200               0             -200               0
1.39604               -0.1157291       -16.45694        -55.88599        32.91439             -200               0             -200               0
1.40264               -0.1185061        -16.6035        -55.72298        29.67403             -200               0             -200               0
1.40924               -0.1213742        -16.7521        -55.56269        26.49937             -200               0             -200               0
1.41584               -0.1243436       -16.90276        -55.40382        23.39163             -200               0             -200               0
1.42244               -0.1274272       -17.05551        -55.24501        20.35107             -200               0             -200               0
1.42904               -0.1306386       -17.21035        -55.08491        17.37692             -200               0             -200               0
1.43564               -0.1339867       -17.36729        -54.92215        14.46726             -200               0             -200               0
1.44224               -0.1374827       -17.52632        -54.75537        11.61899             -200               0             -200               0
1.44884               -0.1411355       -17.68742        -54.58329        8.827832             -200               0             -200               0
1.45545               -0.1449529       -17.85059         -54.4047        6.088296             -200               0             -200               0
1.46205               -0.1489414       -18.01581        -54.21851        3.393771             -200               0             -200               0
1.46865               -0.1531065       -18.18306        -54.02377       0.7366307             -200               0             -200               0
1.47525               -0.1574532       -18.35231        -53.81973       -1.891611             -200               0             -200               0
1.48185               -0.1619821       -18.52355         -53.6058       -4.500093             -200               0             -200               0
1.48845               -0.1666951       -18.69678        -53.38164        -7.09837             -200               0             -200               0
1.49505               -0.1715921       -18.87199        -53.14712       -9.696145             -200               0             -200               0
1.50165               -0.1766719       -19.04918        -52.90235         -12.303             -200               0             -200               0
1.50825                -0.181933       -19.22837        -52.64764       -14.92815             -200               0             -200               0
1.51485               -0.1873713       -19.40958        -52.38349       -17.58018             -200               0             -200               0
1.52145               -0.1929853       -19.59284        -52.11061       -20.26684             -200               0             -200               0
1.52805               -0.1987731        -19.7782        -51.82981       -22.99492             -200               0             -200               0
1.53465               -0.2047291       -19.96572        -51.54203       -25.77012             -200               0             -200               0
1.54125               -0.2108527       -20.15547        -51.24829         -28.597             -200               0             -200               0
1.54785                -0.217144       -20.34754        -50.94966       -31.47896             -200               0             -200               0
1.55446               -0.2235994       -20.54202         -50.6472        -34.4183             -200               0             -200               0
1.56106               -0.2302246       -20.73903        -50.34199       -37.41625             -200               0             -200               0
1.56766               -0.2370185       -20.93867        -50.03505       -40.47306             -200               0             -200               0
1.57426               -0.2439899       -21.14107        -49.72737       -43.58812             -200               0             -200               0
1.58086                -0.251143       -21.34636        -49.41986       -46.76007             -200               0             -200               0
1.58746               -0.2584905       -21.55468        -49.11336       -49.98691             -200               0             -200               0
1.59406               -0.2660423       -21.76615        -48.80862       -53.26608             -200               0             -200               0
1.60066               -0.2738129       -21.98092        -48.50632       -56.59461             -200               0             -200               0
1.60726               -0.2818199       -22.19911        -48.20706       -59.96917             -200               0             -200               0
1.61386               -0.2900825       -22.42086        -47.91133       -63.38619             -200               0             -200               0
1.62046               -0.2986219       -22.64628        -47.61955       -66.84191             -200               0             -200               0
1.62706               -0.3074618       -22.87549        -47.33208       -70.33247             -200               0             -200               0
1.63366               -0.3166272       -23.10859        -47.04916       -73.85392             -200               0             -200               0
1.64026               -0.3261457       -23.34566          -46.771       -77.40233             -200               0             -200               0
1.64686               -0.3360466       -23.58678        -46.49772       -80.97376             -200               0             -200               0
1.65347               -0.3463567       -23.83201        -46.22939       -84.56435             -200               0             -200               0
1.66007               -0.3571074       -24.08141        -45.96599       -88.17035             -200               0             -200               0
1.66667               -0.3683285       -24.33499        -45.70747       -91.78809             -200               0             -200               0
1.67327               -0.3800501       -24.59278        -45.45372       -95.41407             -200               0             -200               0
1.67987                -0.392301       -24.85478        -45.20458       -99.04493             -200               0             -200               0
1.68647               -0.4051108       -25.12098        -44.95983       -102.6775             -200               0             -200               0
1.69307               -0.4185082       -25.39137        -44.71922       -106.3089             -200               0             -200               0
1.69967                -0.432518       -25.66591        -44.48245       -109.9362             -200               0             -200               0
1.70627               -0.4471659       -25.94457        -44.24917       -113.5571             -200               0             -200               0
1.71287               -0.4624745        -26.2273        -44.01902       -117.1694             -200               0             -200               0
1.71947               -0.4784656       -26.51407        -43.79159       -120.7709             -200               0             -200               0
1.72607                 -0.49516       -26.80482        -43.56644       -124.3602             -200               0             -200               0
1.73267               -0.5125735       -27.09953         -43.3431        -127.936             -200               0             -200               0
1.73927               -0.5307252       -27.39815         -43.1211       -131.4971             -200               0             -200               0
1.74587               -0.5496271       -27.70065        -42.89993       -135.0432             -200               0             -200               0
1.75248                -0.569294       -28.00703        -42.67908       -138.5739             -200               0             -200               0
1.75908               -0.5897382       -28.31728        -42.45805       -142.0894             -200               0             -200               0
1.76568               -0.6109713       -28.63141        -42.23631       -145.5903             -200               0             -200               0
1.77228               -0.6330052       -28.94945        -42.01337       -149.0775             -200               0             -200               0
1.77888               -0.6558513       -29.27146        -41.78873       -152.5525             -200               0             -200               0
1.78548                -0.679523       -29.59748        -41.56195        -156.017             -200               0             -200               0
1.79208               -0.7040346       -29.92763        -41.33258       -159.4732             -200               0             -200               0
1.79868               -0.7294002       -30.26199        -41.10025       -162.9235             -200               0             -200               0
1.80528               -0.7556382        -30.6007         -40.8646       -166.3708             -200               0             -200               0
1.81188               -0.7827703        -30.9439        -40.62536       -169.8181             -200               0             -200               0
1.81848                 -0.81082       -31.29174        -40.38227       -173.2686             -200               0             -200               0
1.82508               -0.8398152       -31.64441        -40.13519        -176.726             -200               0             -200               0
1.83168               -0.8697898       -32.00207        -39.88399        179.8063             -200               0             -200               0
1.83828               -0.9007781       -32.36494        -39.62864        176.3247             -200               0             -200               0
1.84488               -0.9328248        -32.7332        -39.36917        172.8254             -200               0             -200               0
1.85149               -0.9659768       -33.10706        -39.10566        169.3049             -200               0             -200               0
1.85809                -1.000288       -33.48673        -38.83828        165.7599             -200               0             -200               0
1.86469                -1.035815       -33.87238        -38.56722        162.1869             -200               0             -200               0
1.87129                -1.072625       -34.26422        -38.29276        158.5831             -200               0             -200               0
1.87789                -1.110787        -34.6624        -38.01519        154.9455             -200               0             -200               0
1.88449                -1.150379       -35.06708        -37.73487        151.2716             -200               0             -200               0
1.89109                -1.191479       -35.47839        -37.45216        147.5593             -200               0             -200               0
1.89769                -1.234178       -35.89644        -37.16749        143.8066             -200               0             -200               0
1.90429                -1.278565        -36.3213        -36.88125         140.012             -200               0             -200               0
1.91089                -1.324738       -36.75301         -36.5939        136.1742             -200               0             -200               0
1.91749                -1.372799        -37.1916        -36.30586        132.2922             -200               0             -200               0
1.92409                -1.422849       -37.63703        -36.01757        128.3653             -200               0             -200               0
1.93069                   -1.475       -38.08924        -35.72947        124.3933             -200               0             -200               0
1.93729                -1.529361       -38.54813        -35.44197        120.3759             -200               0             -200               0
1.94389                -1.586048       -39.01354        -35.15548        116.3133             -200               0             -200               0
1.9505                 -1.645174       -39.48531        -34.87039        112.2059             -200               0             -200               0
1.9571                 -1.706859       -39.96319        -34.58709         108.054             -200               0             -200               0
1.9637                  -1.77122       -40.44693        -34.30591        103.8586             -200               0             -200               0
1.9703                 -1.838378       -40.93621        -34.02721        99.62026             -200               0             -200               0
1.9769                 -1.908453       -41.43069        -33.75127        95.34008             -200               0             -200               0
1.9835                 -1.981566       -41.92999        -33.47841         91.0191             -200               0             -200               0
1.9901                 -2.057839       -42.43368        -33.20888        86.65843             -200               0             -200               0
1.9967                 -2.137393       -42.94132        -32.94293        82.25932             -200               0             -200               0
2.0033                 -2.220348        -43.4524        -32.68079        77.82299             -200               0             -200               0
2.0099                 -2.306829       -43.96641        -32.42267        73.35077             -200               0             -200               0
2.0165                 -2.396957        -44.4828        -32.16875        68.84396             -200               0             -200               0
2.0231                 -2.490855       -45.00099         -31.9192        64.30391             -200               0             -200               0
2.0297                 -2.588647       -45.52038        -31.67417        59.73196             -200               0             -200               0
2.0363                  -2.69046       -46.04032        -31.43381        55.12945             -200               0             -200               0
2.0429                 -2.796419       -46.56015        -31.19823        50.49772             -200               0             -200               0
2.0495                 -2.906657       -47.07919        -30.96755        45.83808             -200               0             -200               0
2.05611                -3.021306       -47.59672        -30.74186        41.15184             -200               0             -200               0
2.06271                -3.140503       -48.11197        -30.52125        36.44028             -200               0             -200               0
2.06931                 -3.26439       -48.62419        -30.30578        31.70465             -200               0             -200               0
2.07591                -3.393115       -49.13254        -30.09553        26.94619             -200               0             -200               0
2.08251                 -3.52683       -49.63618        -29.89054        22.16609             -200               0             -200               0
2.08911                  -3.6657       -50.13419        -29.69088        17.36554             -200               0             -200               0
2.09571                -3.809892       -50.62561        -29.49657        12.54567             -200               0             -200               0
2.10231                -3.959586       -51.10943        -29.30766        7.707603             -200               0             -200               0
2.10891                -4.114974       -51.58456        -29.12416        2.852425             -200               0             -200               0
2.11551                -4.276256       -52.04982        -28.94611       -2.018811             -200               0             -200               0
2.12211                -4.443647       -52.50394        -28.77352       -6.905073             -200               0             -200               0
2.12871                -4.617377       -52.94554        -28.60639       -11.80536             -200               0             -200               0
2.13531                -4.797687       -53.37312        -28.44475        -16.7187             -200               0             -200               0
2.14191                -4.984837       -53.78501         -28.2886       -21.64414             -200               0             -200               0
2.14851                -5.179105       -54.17938        -28.13794       -26.58075             -200               0             -200               0
2.15512                 -5.38078       -54.55419        -27.99276       -31.52764             -200               0             -200               0
2.16172                -5.590178       -54.90718        -27.85308       -36.48393             -200               0             -200               0
2.16832                -5.807626       -55.23584        -27.71887       -41.44876             -200               0             -200               0
2.17492                -6.033474       -55.53732        -27.59014       -46.42129             -200               0             -200               0
2.18152                -6.268091       -55.80844        -27.46688        -51.4007             -200               0             -200               0
2.18812                -6.511861       -56.04563        -27.34907        -56.3862             -200               0             -200               0
2.19472                -6.765186       -56.24484        -27.23671       -61.37699             -200               0             -200               0
2.20132                -7.028483        -56.4015        -27.12978        -66.3723             -200               0             -200               0
2.20792                -7.302181       -56.51044        -27.02826       -71.37139             -200               0             -200               0
2.21452                -7.586713       -56.56576        -26.93214        -76.3735             -200               0             -200               0
2.22112                -7.882514       -56.56078        -26.84141        -81.3779             -200               0             -200               0
2.22772                -8.190012       -56.48791        -26.75605       -86.38386             -200               0             -200               0
2.23432                -8.509608       -56.33847        -26.67603       -91.39068             -200               0             -200               0
2.24092                -8.841666       -56.10257        -26.60135       -96.39765             -200               0             -200               0
2.24752                -9.186486       -55.76892        -26.53197       -101.4041             -200               0             -200               0
2.25413                -9.544271       -55.32467        -26.46788       -106.4092             -200               0             -200               0
2.26073                -9.915086       -54.75515        -26.40906       -111.4125             -200               0             -200               0
2.26733                 -10.2988        -54.0437        -26.35549       -116.4131             -200               0             -200               0
2.27393                  -10.695       -53.17147        -26.30713       -121.4104             -200               0             -200               0
2.28053                -11.10291       -52.11722        -26.26397       -126.4037             -200               0             -200               0
2.28713                -11.52125       -50.85732        -26.22598       -131.3924             -200               0             -200               0
2.29373                -11.94807       -49.36585        -26.19314       -136.3757             -200               0             -200               0