! TOUCHSTONE file generated by CST MICROWAVE STUDIO
! Date and time: Tue Mar 18 00:01:05 2025
! Project name: oblique.cst
! Parameters = {Tilt=30; Fracture=1; B=10; D=160; F=25; Feed=2.85625; L=100; M=50; R=0.384908; S=1; Theta=270; length=57.125; wave=114.25}
! Header version: 2024
! Port assignment regex: !\s*Touchstone port\s*([0-9]+)\s*=\s*(CST MWS port|CST DES external port|CST DES block port)\s*(.+)\s* \(\"(.*)\"\)(\s*mode\s*([0-9]+))?.*
! Touchstone port assignment:
! Touchstone port 1 = CST MWS port 1 ("")
! Touchstone port 2 = CST MWS port 2 ("")
# GHz S DB R 50
1                    -0.02006475       -9.780831        -68.19963        152.6963             -200               0             -200               0
1.00662              -0.02074315       -9.868696        -68.15793        146.9322             -200               0             -200               0
1.01325              -0.02143075       -9.957126         -68.1467        141.2738             -200               0             -200               0
1.01987              -0.02212818       -10.04614         -68.1663         135.729             -200               0             -200               0
1.02649              -0.02283603       -10.13577        -68.21721         130.308             -200               0             -200               0
1.03311              -0.02355337       -10.22602        -68.30003        125.0232             -200               0             -200               0
1.03974              -0.02428189       -10.31693         -68.4154          119.89             -200               0             -200               0
1.04636              -0.02502304        -10.4085        -68.56404        114.9274             -200               0             -200               0
1.05298              -0.02577694       -10.50077        -68.74662        110.1585             -200               0             -200               0
1.0596               -0.02654565       -10.59375        -68.96372        105.6116             -200               0             -200               0
1.06623               -0.0273308       -10.68746        -69.21563        101.3213             -200               0             -200               0
1.07285              -0.02813452       -10.78192        -69.50216        97.32955             -200               0             -200               0
1.07947              -0.02895894       -10.87715        -69.82227        93.68735             -200               0             -200               0
1.08609               -0.0298078       -10.97317        -70.17355        90.45575             -200               0             -200               0
1.09272              -0.03068123       -11.06998        -70.55142        87.70652             -200               0             -200               0
1.09934              -0.03158367        -11.1676        -70.94808        85.52124             -200               0             -200               0
1.10596              -0.03251682       -11.26604        -71.35107        83.98701             -200               0             -200               0
1.11258              -0.03348411       -11.36531        -71.74164        83.18638             -200               0             -200               0
1.11921               -0.0344874       -11.46542        -72.09346        83.17831             -200               0             -200               0
1.12583              -0.03552963       -11.56636        -72.37275        83.96886             -200               0             -200               0
1.13245              -0.03661234       -11.66815        -72.54128        85.47643             -200               0             -200               0
1.13907              -0.03773791       -11.77078        -72.56355        87.50742             -200               0             -200               0
1.1457               -0.03890838       -11.87427        -72.41659        89.76568             -200               0             -200               0
1.15232              -0.04012374        -11.9786        -72.09792        91.90722             -200               0             -200               0
1.15894              -0.04138647       -12.08378        -71.62643        93.61982             -200               0             -200               0
1.16556               -0.0426975       -12.18981        -71.03557          94.686             -200               0             -200               0
1.17219              -0.04405674       -12.29669        -70.36351        95.00189             -200               0             -200               0
1.17881              -0.04546401       -12.40443        -69.64515        94.55819             -200               0             -200               0
1.18543              -0.04692062       -12.51304        -68.90825        93.40592             -200               0             -200               0
1.19205              -0.04842482       -12.62251        -68.17283        91.62517             -200               0             -200               0
1.19868              -0.04997662       -12.73286        -67.45232        89.30392             -200               0             -200               0
1.2053               -0.05157558       -12.84409        -66.75513        86.52629             -200               0             -200               0
1.21192              -0.05322064       -12.95622        -66.08613        83.36728             -200               0             -200               0
1.21854              -0.05491098       -13.06927        -65.44785        79.89136             -200               0             -200               0
1.22517              -0.05664591       -13.18326        -64.84126        76.15279             -200               0             -200               0
1.23179              -0.05842593       -13.29821        -64.26636        72.19688             -200               0             -200               0
1.23841              -0.06024839       -13.41414        -63.72261        68.06126             -200               0             -200               0
1.24503              -0.06211475       -13.53108         -63.2091        63.77727             -200               0             -200               0
1.25166              -0.06402514       -13.64907        -62.72476        59.37111             -200               0             -200               0
1.25828              -0.06597829       -13.76812        -62.26845        54.86477             -200               0             -200               0
1.2649               -0.06797813        -13.8883        -61.83903         50.2769             -200               0             -200               0
1.27152              -0.07002328       -14.00961        -61.43537         45.6234             -200               0             -200               0
1.27815              -0.07211762       -14.13212         -61.0564        40.91799             -200               0             -200               0
1.28477              -0.07426213       -14.25584         -60.7011         36.1726             -200               0             -200               0
1.29139              -0.07646065       -14.38083        -60.36854        31.39776             -200               0             -200               0
1.29801              -0.07871718       -14.50712        -60.05782        26.60282             -200               0             -200               0
1.30464              -0.08103519       -14.63474        -59.76811        21.79623             -200               0             -200               0
1.31126              -0.08341964       -14.76373        -59.49865        16.98571             -200               0             -200               0
1.31788              -0.08587522       -14.89413         -59.2487        12.17839             -200               0             -200               0
1.3245               -0.08840791       -15.02596        -59.01758        7.380955             -200               0             -200               0
1.33113              -0.09102326       -15.15926        -58.80465        2.599756             -200               0             -200               0
1.33775              -0.09372756       -15.29405        -58.60928       -2.159117             -200               0             -200               0
1.34437              -0.09652784       -15.43035        -58.43088       -6.889745             -200               0             -200               0
1.35099               -0.0994293       -15.56818        -58.26884       -11.58632             -200               0             -200               0
1.35762               -0.1024391       -15.70756        -58.12259       -16.24308             -200               0             -200               0
1.36424               -0.1055644        -15.8485        -57.99151       -20.85429             -200               0             -200               0
1.37086               -0.1088112         -15.991          -57.875       -25.41419             -200               0             -200               0
1.37748               -0.1121845       -16.13508        -57.77242       -29.91698             -200               0             -200               0
1.38411               -0.1156917       -16.28074        -57.68307        -34.3568             -200               0             -200               0
1.39073               -0.1193377       -16.42797        -57.60621       -38.72773             -200               0             -200               0
1.39735               -0.1231284       -16.57678        -57.54105       -43.02383             -200               0             -200               0
1.40397               -0.1270671       -16.72717         -57.4867       -47.23912             -200               0             -200               0
1.4106                -0.1311584       -16.87913        -57.44217        -51.3677             -200               0             -200               0
1.41722               -0.1354067       -17.03266        -57.40639       -55.40377             -200               0             -200               0
1.42384               -0.1398139       -17.18776        -57.37812       -59.34177             -200               0             -200               0
1.43046               -0.1443837       -17.34444        -57.35603       -63.17649             -200               0             -200               0
1.43709               -0.1491174       -17.50268        -57.33861       -66.90328             -200               0             -200               0
1.44371               -0.1540185       -17.66251        -57.32422       -70.51819             -200               0             -200               0
1.45033                -0.159086       -17.82391        -57.31105       -74.01828             -200               0             -200               0
1.45695                -0.164323       -17.98692        -57.29716       -77.40181             -200               0             -200               0
1.46358               -0.1697297       -18.15153        -57.28047       -80.66861             -200               0             -200               0
1.4702                -0.1753076       -18.31778         -57.2588       -83.82029             -200               0             -200               0
1.47682               -0.1810572       -18.48569        -57.22994       -86.86055             -200               0             -200               0
1.48344               -0.1869796       -18.65528        -57.19164       -89.79536             -200               0             -200               0
1.49007                -0.193077       -18.82659        -57.14177       -92.63314             -200               0             -200               0
1.49669               -0.1993499       -18.99967        -57.07832       -95.38477             -200               0             -200               0
1.50331               -0.2058012       -19.17454        -56.99953       -98.06343             -200               0             -200               0
1.50993                -0.212434       -19.35126        -56.90396       -100.6844             -200               0             -200               0
1.51656               -0.2192508       -19.52988        -56.79056       -103.2645             -200               0             -200               0
1.52318               -0.2262569       -19.71045        -56.65871       -105.8218             -200               0             -200               0
1.5298                -0.2334569       -19.89302         -56.5083       -108.3746             -200               0             -200               0
1.53642               -0.2408562       -20.07766        -56.33967        -110.941             -200               0             -200               0
1.54305               -0.2484625       -20.26441        -56.15365       -113.5381             -200               0             -200               0
1.54967               -0.2562822       -20.45334        -55.95145       -116.1815             -200               0             -200               0
1.55629               -0.2643251        -20.6445        -55.73461       -118.8849             -200               0             -200               0
1.56291               -0.2725995       -20.83794        -55.50496       -121.6595             -200               0             -200               0
1.56954               -0.2811164       -21.03373        -55.26446        -124.514             -200               0             -200               0
1.57616               -0.2898862       -21.23189        -55.01519       -127.4548             -200               0             -200               0
1.58278                 -0.29892       -21.43249        -54.75921       -130.4858             -200               0             -200               0
1.5894                -0.3082307       -21.63555        -54.49855       -133.6088             -200               0             -200               0
1.59603               -0.3178297       -21.84112        -54.23515       -136.8234             -200               0             -200               0
1.60265                -0.327731       -22.04923         -53.9708       -140.1279             -200               0             -200               0
1.60927                -0.337946       -22.25991        -53.70715       -143.5191             -200               0             -200               0
1.61589               -0.3484885       -22.47317        -53.44567       -146.9927             -200               0             -200               0
1.62252                 -0.35937       -22.68904        -53.18767       -150.5436             -200               0             -200               0
1.62914               -0.3706058       -22.90753         -52.9343        -154.166             -200               0             -200               0
1.63576               -0.3822062       -23.12865        -52.68652       -157.8536             -200               0             -200               0
1.64238               -0.3941848       -23.35241        -52.44517       -161.6001             -200               0             -200               0
1.64901               -0.4065496       -23.57881        -52.21094       -165.3987             -200               0             -200               0
1.65563               -0.4193152       -23.80785        -51.98439       -169.2427             -200               0             -200               0
1.66225               -0.4324892       -24.03955        -51.76595       -173.1252             -200               0             -200               0
1.66887               -0.4460806        -24.2739        -51.55596       -177.0395             -200               0             -200               0
1.6755                -0.4601011       -24.51092        -51.35466        179.0211             -200               0             -200               0
1.68212                -0.474557       -24.75061        -51.16218        175.0632             -200               0             -200               0
1.68874               -0.4894569       -24.99299        -50.97857        171.0935             -200               0             -200               0
1.69536               -0.5048074       -25.23807        -50.80382        167.1182             -200               0             -200               0
1.70199               -0.5206153       -25.48589        -50.63782        163.1439             -200               0             -200               0
1.70861               -0.5368882       -25.73647        -50.48037        159.1767             -200               0             -200               0
1.71523               -0.5536313       -25.98986        -50.33122        155.2226             -200               0             -200               0
1.72185               -0.5708525        -26.2461        -50.19004        151.2878             -200               0             -200               0
1.72848               -0.5885582       -26.50526         -50.0564        147.3779             -200               0             -200               0
1.7351                -0.6067563       -26.76739        -49.92981        143.4987             -200               0             -200               0
1.74172               -0.6254544       -27.03258        -49.80968        139.6556             -200               0             -200               0
1.74834                -0.644664       -27.30092        -49.69534        135.8539             -200               0             -200               0
1.75497               -0.6643917       -27.57249        -49.58602        132.0983             -200               0             -200               0
1.76159               -0.6846532        -27.8474        -49.48086        128.3936             -200               0             -200               0
1.76821               -0.7054605       -28.12576        -49.37889        124.7437             -200               0             -200               0
1.77483               -0.7268282        -28.4077        -49.27906        121.1521             -200               0             -200               0
1.78146               -0.7487741       -28.69332        -49.18022        117.6218             -200               0             -200               0
1.78808               -0.7713158       -28.98278        -49.08113        114.1547             -200               0             -200               0
1.7947                -0.7944773       -29.27618        -48.98045        110.7521             -200               0             -200               0
1.80132               -0.8182808       -29.57368        -48.87681        107.4138             -200               0             -200               0
1.80795               -0.8427522        -29.8754        -48.76877        104.1389             -200               0             -200               0
1.81457               -0.8679204       -30.18148        -48.65488        100.9249             -200               0             -200               0
1.82119               -0.8938162       -30.49206        -48.53369        97.76782             -200               0             -200               0
1.82781               -0.9204724       -30.80726        -48.40382        94.66256             -200               0             -200               0
1.83444               -0.9479246       -31.12722        -48.26396        91.60235             -200               0             -200               0
1.84106               -0.9762105       -31.45204        -48.11294        88.57911             -200               0             -200               0
1.84768                 -1.00537       -31.78185        -47.94976        85.58353             -200               0             -200               0
1.8543                 -1.035445       -32.11676        -47.77362        82.60523             -200               0             -200               0
1.86093                -1.066478       -32.45685        -47.58396        79.63307             -200               0             -200               0
1.86755                -1.098516       -32.80223         -47.3805         76.6554             -200               0             -200               0
1.87417                -1.131605       -33.15297         -47.1632        73.66041             -200               0             -200               0
1.88079                -1.165793       -33.50916         -46.9323        70.63648             -200               0             -200               0
1.88742                 -1.20113       -33.87086         -46.6883         67.5725             -200               0             -200               0
1.89404                -1.237668       -34.23812        -46.43194        64.45814             -200               0             -200               0
1.90066                -1.275456       -34.61101        -46.16413        61.28413             -200               0             -200               0
1.90728                 -1.31455       -34.98956        -45.88597        58.04238             -200               0             -200               0
1.91391                -1.355004       -35.37383        -45.59865        54.72612             -200               0             -200               0
1.92053                -1.396872       -35.76386        -45.30346        51.32995             -200               0             -200               0
1.92715                 -1.44021       -36.15969        -45.00172         47.8498             -200               0             -200               0
1.93377                -1.485077       -36.56135        -44.69476        44.28289             -200               0             -200               0
1.9404                 -1.531531       -36.96889        -44.38386        40.62762             -200               0             -200               0
1.94702                -1.579634       -37.38235        -44.07029        36.88343             -200               0             -200               0
1.95364                -1.629448       -37.80178        -43.75522        33.05069             -200               0             -200               0
1.96026                -1.681037       -38.22724        -43.43975        29.13057             -200               0             -200               0
1.96689                 -1.73447       -38.65876        -43.12491        25.12484             -200               0             -200               0
1.97351                -1.789818       -39.09644         -42.8116         21.0358             -200               0             -200               0
1.98013                -1.847153       -39.54033        -42.50068        16.86615             -200               0             -200               0
1.98675                -1.906557       -39.99052        -42.19287        12.61885             -200               0             -200               0
1.99338                 -1.96811       -40.44709        -41.88883        8.297089             -200               0             -200               0
2                      -2.031902       -40.91014        -41.58915        3.904156             -200               0             -200               0
2.00662                -2.098027       -41.37977        -41.29433      -0.5565917             -200               0             -200               0
2.01325                -2.166587       -41.85608        -41.00479       -5.081797             -200               0             -200               0
2.01987                 -2.23769       -42.33916        -40.72092       -9.668124             -200               0             -200               0
2.02649                -2.311451       -42.82913        -40.44303       -14.31232             -200               0             -200               0
2.03311                -2.387997       -43.32609        -40.17139       -19.01119             -200               0             -200               0
2.03974                -2.467462       -43.83012        -39.90622       -23.76167             -200               0             -200               0
2.04636                -2.549991       -44.34131        -39.64771       -28.56081             -200               0             -200               0
2.05298                -2.635739       -44.85971        -39.39601       -33.40577             -200               0             -200               0
2.0596                 -2.724873       -45.38538        -39.15125       -38.29383             -200               0             -200               0
2.06623                -2.817573       -45.91833        -38.91352       -43.22243             -200               0             -200               0
2.07285                -2.914032       -46.45855        -38.68289       -48.18911             -200               0             -200               0
2.07947                -3.014453       -47.00596        -38.45944       -53.19154             -200               0             -200               0
2.08609                -3.119059        -47.5605        -38.24319       -58.22752             -200               0             -200               0
2.09272                -3.228082       -48.12198        -38.03417       -63.29495             -200               0             -200               0
2.09934                -3.341775       -48.69021        -37.83239       -68.39186             -200               0             -200               0
2.10596                -3.460402       -49.26489        -37.63788       -73.51638             -200               0             -200               0
2.11258                -3.584246       -49.84567        -37.45061       -78.66673             -200               0             -200               0
2.11921                -3.713611        -50.4321        -37.27058       -83.84124             -200               0             -200               0
2.12583                -3.848814       -51.02364        -37.09778       -89.03832             -200               0             -200               0
2.13245                -3.990194       -51.61965        -36.93219       -94.25645             -200               0             -200               0
2.13907                 -4.13811       -52.21935        -36.77379       -99.49423             -200               0             -200               0
2.1457                 -4.292944       -52.82183        -36.62254       -104.7503             -200               0             -200               0
2.15232                -4.455099       -53.42607        -36.47844       -110.0233             -200               0             -200               0
2.15894                -4.625002       -54.03086        -36.34144       -115.3121             -200               0             -200               0
2.16556                -4.803106       -54.63481        -36.21151       -120.6156             -200               0             -200               0
2.17219                -4.989896       -55.23634        -36.08864       -125.9325             -200               0             -200               0
2.17881                -5.185882       -55.83366        -35.97279       -131.2618             -200               0             -200               0
2.18543                -5.391609       -56.42472        -35.86393       -136.6026             -200               0             -200               0
2.19205                -5.607656       -57.00717        -35.76203       -141.9538             -200               0             -200               0
2.19868                -5.834644       -57.57838        -35.66707       -147.3145             -200               0             -200               0
2.2053                 -6.073234       -58.13533        -35.57903       -152.6839             -200               0             -200               0
2.21192                -6.324137       -58.67461        -35.49788       -158.0609             -200               0             -200               0
2.21854                -6.588114       -59.19229        -35.42359       -163.4449             -200               0             -200               0
2.22517                -6.865985       -59.68391        -35.35615       -168.8349             -200               0             -200               0
2.23179                -7.158631       -60.14433        -35.29553       -174.2303             -200               0             -200               0
2.23841                -7.467006       -60.56765        -35.24173       -179.6302             -200               0             -200               0
2.24503                 -7.79214       -60.94704        -35.19472        174.9661             -200               0             -200               0
2.25166                -8.135146       -61.27454         -35.1545        169.5594             -200               0             -200               0
2.25828                -8.497229       -61.54086        -35.12105        164.1503             -200               0             -200               0
2.2649                 -8.879689       -61.73508        -35.09436        158.7396             -200               0             -200               0
2.27152                -9.283928       -61.84426        -35.07443        153.3279             -200               0             -200               0
2.27815                -9.711444         -61.853        -35.06125        147.9161             -200               0             -200               0
2.28477                -10.16383       -61.74279        -35.05483        142.5046             -200               0             -200               0
2.29139                -10.64273       -61.49135        -35.05516        137.0943             -200               0             -200               0
2.29801                -11.14983       -61.07148        -35.06225        131.6858             -200               0             -200               0