! TOUCHSTONE file generated by CST MICROWAVE STUDIO
! Date and time: Tue Mar 18 00:02:59 2025
! Project name: oblique.cst
! Parameters = {Tilt=40; Fracture=1; B=12.5; D=160; F=15; Feed=2.85625; L=100; M=50; R=0.384908; S=2; Theta=180; length=57.125; wave=114.25}
! Header version: 2024
! Port assignment regex: !\s*Touchstone port\s*([0-9]+)\s*=\s*(CST MWS port|CST DES external port|CST DES block port)\s*(.+)\s* \(\"(.*)\"\)(\s*mode\s*([0-9]+))?.*
! Touchstone port assignment:
! Touchstone port 1 = CST MWS port 1 ("")
! Touchstone port 2 = CST MWS port 2 ("")
# GHz S DB R 50
1                    -0.02021201       -9.801148        -68.90071        160.9089             -200               0             -200               0
1.00658              -0.02098792       -9.888996        -68.82842          155.68             -200               0             -200               0
1.01316              -0.02177755       -9.977339        -68.78428        150.5493             -200               0             -200               0
1.01974              -0.02257962        -10.0662         -68.7682        145.5258             -200               0             -200               0
1.02632              -0.02339171       -10.15558        -68.78013        140.6204             -200               0             -200               0
1.03289              -0.02421432       -10.24553        -68.82004        135.8459             -200               0             -200               0
1.03947              -0.02504437       -10.33605        -68.88789        131.2175             -200               0             -200               0
1.04605              -0.02588279       -10.42719        -68.98356        126.7527             -200               0             -200               0
1.05263              -0.02672892       -10.51896        -69.10677        122.4723             -200               0             -200               0
1.05921              -0.02758307       -10.61139        -69.25696        118.4005             -200               0             -200               0
1.06579              -0.02844659       -10.70452        -69.43319        114.5655             -200               0             -200               0
1.07237              -0.02932242       -10.79837        -69.63389        110.9998             -200               0             -200               0
1.07895              -0.03021079       -10.89297        -69.85659        107.7404             -200               0             -200               0
1.08553              -0.03111422       -10.98834        -70.09759        104.8283             -200               0             -200               0
1.09211              -0.03203556       -11.08452        -70.35149         102.308             -200               0             -200               0
1.09868              -0.03298051       -11.18152        -70.61068        100.2248             -200               0             -200               0
1.10526              -0.03394955       -11.27936        -70.86477        98.62057             -200               0             -200               0
1.11184              -0.03494842       -11.37806        -71.10021        97.52697             -200               0             -200               0
1.11842              -0.03597992       -11.47763        -71.30025        96.95575             -200               0             -200               0
1.125                -0.03704947       -11.57807        -71.44564        96.88704             -200               0             -200               0
1.13158              -0.03815899        -11.6794        -71.51642        97.25833             -200               0             -200               0
1.13816              -0.03931297       -11.78162         -71.4948        97.95923             -200               0             -200               0
1.14474              -0.04051623       -11.88473        -71.36855        98.83704             -200               0             -200               0
1.15132              -0.04177084       -11.98872        -71.13382         99.7151             -200               0             -200               0
1.15789              -0.04307906       -12.09359        -70.79606        100.4196             -200               0             -200               0
1.16447              -0.04444367       -12.19933        -70.36864        100.8053             -200               0             -200               0
1.17105              -0.04586653       -12.30593        -69.86984        100.7716             -200               0             -200               0
1.17763              -0.04734829       -12.41339        -69.31944        100.2655             -200               0             -200               0
1.18421              -0.04889151       -12.52169        -68.73607        99.27463             -200               0             -200               0
1.19079              -0.05049356       -12.63083        -68.13562        97.81619             -200               0             -200               0
1.19737              -0.05215678       -12.74081        -67.53074        95.92518             -200               0             -200               0
1.20395              -0.05387706       -12.85162        -66.93096        93.64531             -200               0             -200               0
1.21053              -0.05565657       -12.96325        -66.34315        91.02274             -200               0             -200               0
1.21711              -0.05749129       -13.07571        -65.77201        88.10225             -200               0             -200               0
1.22368              -0.05937951       -13.18901        -65.22066        84.92526             -200               0             -200               0
1.23026               -0.0613181       -13.30315        -64.69103        81.52899             -200               0             -200               0
1.23684              -0.06330643       -13.41816        -64.18419         77.9463             -200               0             -200               0
1.24342              -0.06534157       -13.53404         -63.7006        74.20596             -200               0             -200               0
1.25                 -0.06742087       -13.65083        -63.24033        70.33305             -200               0             -200               0
1.25658              -0.06954257       -13.76856        -62.80315        66.34938             -200               0             -200               0
1.26316              -0.07170479       -13.88725        -62.38868          62.274             -200               0             -200               0
1.26974               -0.0739058       -14.00695         -61.9964         58.1236             -200               0             -200               0
1.27632              -0.07614713       -14.12769        -61.62571        53.91285             -200               0             -200               0
1.28289               -0.0784267       -14.24953          -61.276        49.65482             -200               0             -200               0
1.28947              -0.08074513        -14.3725        -60.94663        45.36117             -200               0             -200               0
1.29605              -0.08310666       -14.49665        -60.63696        41.04244             -200               0             -200               0
1.30263              -0.08550941       -14.62204        -60.34632        36.70825             -200               0             -200               0
1.30921              -0.08796072        -14.7487         -60.0741         32.3674             -200               0             -200               0
1.31579               -0.0904613        -14.8767        -59.81966        28.02818             -200               0             -200               0
1.32237               -0.0930185       -15.00607        -59.58236        23.69828             -200               0             -200               0
1.32895              -0.09563481       -15.13687        -59.36158        19.38508             -200               0             -200               0
1.33553              -0.09831864       -15.26912        -59.15668         15.0956             -200               0             -200               0
1.34211               -0.1010767       -15.40288        -58.96701        10.83666             -200               0             -200               0
1.34868               -0.1039147       -15.53816        -58.79191         6.61488             -200               0             -200               0
1.35526               -0.1068409         -15.675        -58.63067        2.436738             -200               0             -200               0
1.36184               -0.1098625       -15.81343        -58.48257       -1.691399             -200               0             -200               0
1.36842               -0.1129886       -15.95346        -58.34681       -5.763269             -200               0             -200               0
1.375                 -0.1162252        -16.0951        -58.22256       -9.772714             -200               0             -200               0
1.38158               -0.1195819       -16.23836         -58.1089       -13.71371             -200               0             -200               0
1.38816               -0.1230637       -16.38325        -58.00482       -17.58041             -200               0             -200               0
1.39474                -0.126678       -16.52977        -57.90925        -21.3672             -200               0             -200               0
1.40132               -0.1304321        -16.6779        -57.82099       -25.06877             -200               0             -200               0
1.40789               -0.1343323       -16.82766        -57.73871       -28.68028             -200               0             -200               0
1.41447                -0.138381       -16.97902        -57.66099       -32.19743             -200               0             -200               0
1.42105               -0.1425847       -17.13198        -57.58627       -35.61671             -200               0             -200               0
1.42763                -0.146946       -17.28654        -57.51286       -38.93552             -200               0             -200               0
1.43421               -0.1514692       -17.44267        -57.43898       -42.15241             -200               0             -200               0
1.44079                -0.156153       -17.60038        -57.36273       -45.26732             -200               0             -200               0
1.44737               -0.1610016       -17.75966        -57.28214       -48.28178             -200               0             -200               0
1.45395               -0.1660151       -17.92051        -57.19523       -51.19911             -200               0             -200               0
1.46053               -0.1711917       -18.08295        -57.10001       -54.02458             -200               0             -200               0
1.46711               -0.1765332       -18.24696        -56.99457       -56.76554             -200               0             -200               0
1.47368               -0.1820392       -18.41258        -56.87712       -59.43136             -200               0             -200               0
1.48026               -0.1877086       -18.57983        -56.74609       -62.03335             -200               0             -200               0
1.48684               -0.1935386       -18.74873        -56.60017        -64.5846             -200               0             -200               0
1.49342               -0.1995314       -18.91931        -56.43835       -67.09954             -200               0             -200               0
1.5                   -0.2056871       -19.09163        -56.26003        -69.5936             -200               0             -200               0
1.50658               -0.2120029       -19.26573        -56.06496       -72.08261             -200               0             -200               0
1.51316               -0.2184821       -19.44166        -55.85332       -74.58233             -200               0             -200               0
1.51974                -0.225127       -19.61948        -55.62567       -77.10785             -200               0             -200               0
1.52632                -0.231938       -19.79926        -55.38291       -79.67315             -200               0             -200               0
1.53289               -0.2389208       -19.98107        -55.12625       -82.29065             -200               0             -200               0
1.53947               -0.2460802       -20.16496        -54.85713       -84.97097             -200               0             -200               0
1.54605               -0.2534213       -20.35102        -54.57716       -87.72272             -200               0             -200               0
1.55263               -0.2609507       -20.53932        -54.28806       -90.55246             -200               0             -200               0
1.55921               -0.2686775       -20.72993        -53.99157       -93.46472             -200               0             -200               0
1.56579               -0.2766119       -20.92291        -53.68944       -96.46219             -200               0             -200               0
1.57237               -0.2847627       -21.11835        -53.38333        -99.5458             -200               0             -200               0
1.57895                -0.293143       -21.31629        -53.07485        -102.715             -200               0             -200               0
1.58553               -0.3017641        -21.5168        -52.76546       -105.9681             -200               0             -200               0
1.59211               -0.3106392       -21.71992        -52.45649       -109.3022             -200               0             -200               0
1.59868               -0.3197829       -21.92571        -52.14914       -112.7137             -200               0             -200               0
1.60526               -0.3292081       -22.13422        -51.84446       -116.1982             -200               0             -200               0
1.61184               -0.3389302       -22.34546        -51.54338       -119.7512             -200               0             -200               0
1.61842               -0.3489623       -22.55948        -51.24667       -123.3675             -200               0             -200               0
1.625                 -0.3593192       -22.77629          -50.955       -127.0419             -200               0             -200               0
1.63158               -0.3700152        -22.9959         -50.6689       -130.7692             -200               0             -200               0
1.63816                -0.381063       -23.21834        -50.38882       -134.5439             -200               0             -200               0
1.64474               -0.3924751       -23.44361        -50.11509       -138.3608             -200               0             -200               0
1.65132               -0.4042643       -23.67171        -49.84797       -142.2147             -200               0             -200               0
1.65789               -0.4164415       -23.90265        -49.58762       -146.1004             -200               0             -200               0
1.66447               -0.4290162       -24.13642        -49.33416       -150.0131             -200               0             -200               0
1.67105               -0.4419989       -24.37305        -49.08759       -153.9479             -200               0             -200               0
1.67763                -0.455397       -24.61252        -48.84791       -157.9001             -200               0             -200               0
1.68421               -0.4692181       -24.85486        -48.61502       -161.8655             -200               0             -200               0
1.69079               -0.4834694       -25.10008        -48.38879       -165.8397             -200               0             -200               0
1.69737               -0.4981571        -25.3482        -48.16903       -169.8187             -200               0             -200               0
1.70395                -0.513285       -25.59927        -47.95552       -173.7987             -200               0             -200               0
1.71053               -0.5288604       -25.85331        -47.74798       -177.7759             -200               0             -200               0
1.71711               -0.5448873       -26.11038        -47.54609         178.253             -200               0             -200               0
1.72368               -0.5613713       -26.37056        -47.34951        174.2911             -200               0             -200               0
1.73026                -0.578318       -26.63391        -47.15784        170.3416             -200               0             -200               0
1.73684               -0.5957339       -26.90052        -46.97066        166.4069             -200               0             -200               0
1.74342               -0.6136253        -27.1705        -46.78751        162.4897             -200               0             -200               0
1.75                  -0.6320026       -27.44396        -46.60789        158.5919             -200               0             -200               0
1.75658               -0.6508763       -27.72102        -46.43129        154.7155             -200               0             -200               0
1.76316                -0.670257       -28.00181        -46.25714        150.8619             -200               0             -200               0
1.76974               -0.6901587        -28.2865        -46.08489        147.0323             -200               0             -200               0
1.77632               -0.7105991        -28.5752        -45.91394        143.2273             -200               0             -200               0
1.78289               -0.7315974       -28.86811        -45.74368        139.4475             -200               0             -200               0
1.78947               -0.7531736       -29.16537         -45.5735        135.6925             -200               0             -200               0
1.79605               -0.7753546       -29.46715        -45.40278        131.9621             -200               0             -200               0
1.80263               -0.7981663       -29.77362        -45.23092        128.2551             -200               0             -200               0
1.80921               -0.8216384       -30.08495         -45.0573        124.5702             -200               0             -200               0
1.81579               -0.8458051        -30.4013        -44.88137        120.9055             -200               0             -200               0
1.82237               -0.8707017       -30.72282        -44.70258        117.2587             -200               0             -200               0
1.82895               -0.8963672       -31.04968        -44.52042        113.6269             -200               0             -200               0
1.83553               -0.9228421       -31.38201        -44.33443        110.0071             -200               0             -200               0
1.84211               -0.9501697       -31.71996        -44.14422        106.3957             -200               0             -200               0
1.84868               -0.9783958       -32.06365        -43.94946         102.789             -200               0             -200               0
1.85526                -1.007567       -32.41319        -43.74989        99.18277             -200               0             -200               0
1.86184                -1.037734       -32.76871        -43.54531        95.57287             -200               0             -200               0
1.86842                -1.068947       -33.13027        -43.33562        91.95493             -200               0             -200               0
1.875                  -1.101255       -33.49798        -43.12079        88.32454             -200               0             -200               0
1.88158                -1.134715       -33.87192        -42.90088        84.67735             -200               0             -200               0
1.88816                -1.169378       -34.25214        -42.67601        81.00911             -200               0             -200               0
1.89474                -1.205297        -34.6387        -42.44638        77.31574             -200               0             -200               0
1.90132                 -1.24253       -35.03167        -42.21226        73.59342             -200               0             -200               0
1.90789                 -1.28113       -35.43109        -41.97398        69.83858             -200               0             -200               0
1.91447                -1.321154       -35.83703        -41.73192        66.04799             -200               0             -200               0
1.92105                -1.362657       -36.24952        -41.48648        62.21878             -200               0             -200               0
1.92763                -1.405697       -36.66863        -41.23814        58.34846             -200               0             -200               0
1.93421                -1.450332       -37.09442        -40.98736        54.43491             -200               0             -200               0
1.94079                -1.496622       -37.52696        -40.73465        50.47642             -200               0             -200               0
1.94737                -1.544628       -37.96635         -40.4805        46.47163             -200               0             -200               0
1.95395                -1.594412       -38.41266        -40.22542        42.41956             -200               0             -200               0
1.96053                -1.646041       -38.86602        -39.96992        38.31959             -200               0             -200               0
1.96711                -1.699586       -39.32655        -39.71449        34.17138             -200               0             -200               0
1.97368                -1.755117        -39.7944        -39.45959        29.97491             -200               0             -200               0
1.98026                -1.812715       -40.26974        -39.20568        25.73041             -200               0             -200               0
1.98684                -1.872463       -40.75274         -38.9532        21.43835             -200               0             -200               0
1.99342                -1.934452       -41.24359        -38.70256         17.0994             -200               0             -200               0
2                       -1.99878       -41.74252        -38.45415        12.71439             -200               0             -200               0
2.00658                -2.065552       -42.24975        -38.20833        8.284313             -200               0             -200               0
2.01316                -2.134885       -42.76553        -37.96542        3.810284             -200               0             -200               0
2.01974                -2.206904        -43.2901        -37.72574      -0.7064887             -200               0             -200               0
2.02632                -2.281747        -43.8237        -37.48958       -5.264724             -200               0             -200               0
2.03289                -2.359563       -44.36659        -37.25719       -9.863077             -200               0             -200               0
2.03947                -2.440513       -44.91902        -37.02881       -14.50016             -200               0             -200               0
2.04605                -2.524776       -45.48122        -36.80465       -19.17456             -200               0             -200               0
2.05263                -2.612543       -46.05339        -36.58491       -23.88485             -200               0             -200               0
2.05921                -2.704019       -46.63574        -36.36976        -28.6296             -200               0             -200               0
2.06579                 -2.79943        -47.2284        -36.15936       -33.40738             -200               0             -200               0
2.07237                -2.899014        -47.8315        -35.95385       -38.21678             -200               0             -200               0
2.07895                -3.003034       -48.44511        -35.75336        -43.0564             -200               0             -200               0
2.08553                -3.111766       -49.06921        -35.55798       -47.92488             -200               0             -200               0
2.09211                -3.225506       -49.70376        -35.36783       -52.82085             -200               0             -200               0
2.09868                -3.344576       -50.34861        -35.18298       -57.74302             -200               0             -200               0
2.10526                -3.469313       -51.00354        -35.00351        -62.6901             -200               0             -200               0
2.11184                -3.600079       -51.66823        -34.82949       -67.66084             -200               0             -200               0
2.11842                -3.737257       -52.34225        -34.66098       -72.65403             -200               0             -200               0
2.125                   -3.88126       -53.02504        -34.49801       -77.66848             -200               0             -200               0
2.13158                -4.032521       -53.71593        -34.34064       -82.70306             -200               0             -200               0
2.13816                -4.191502        -54.4141         -34.1889       -87.75666             -200               0             -200               0
2.14474                -4.358695       -55.11856        -34.04283        -92.8282             -200               0             -200               0
2.15132                -4.534623       -55.82817        -33.90243       -97.91664             -200               0             -200               0
2.15789                -4.719843       -56.54155        -33.76775        -103.021             -200               0             -200               0
2.16447                -4.914946       -57.25716        -33.63879       -108.1402             -200               0             -200               0
2.17105                -5.120568       -57.97318        -33.51557       -113.2735             -200               0             -200               0
2.17763                -5.337386       -58.68755        -33.39811       -118.4197             -200               0             -200               0
2.18421                -5.566126        -59.3979         -33.2864       -123.5782             -200               0             -200               0
2.19079                -5.807573       -60.10149        -33.18046       -128.7479             -200               0             -200               0
2.19737                -6.062568       -60.79522        -33.08029       -133.9281             -200               0             -200               0
2.20395                -6.332025       -61.47552         -32.9859       -139.1179             -200               0             -200               0
2.21053                -6.616936       -62.13829        -32.89729       -144.3166             -200               0             -200               0
2.21711                -6.918382       -62.77877        -32.81446       -149.5233             -200               0             -200               0
2.22368                -7.237546       -63.39151        -32.73741       -154.7374             -200               0             -200               0
2.23026                 -7.57573       -63.97008        -32.66615        -159.958             -200               0             -200               0
2.23684                -7.934364       -64.50704        -32.60066       -165.1844             -200               0             -200               0
2.24342                -8.315036       -64.99355        -32.54095       -170.4159             -200               0             -200               0
2.25                   -8.719505       -65.41911        -32.48703       -175.6519             -200               0             -200               0
2.25658                -9.149729       -65.77118        -32.43888        179.1084             -200               0             -200               0
2.26316                -9.607891       -66.03457        -32.39652        173.8656             -200               0             -200               0
2.26974                -10.09642       -66.19071        -32.35993        168.6205             -200               0             -200               0
2.27632                -10.61804       -66.21672        -32.32912        163.3737             -200               0             -200               0
2.28289                -11.17572       -66.08403        -32.30409        158.1258             -200               0             -200               0
2.28947                -11.77273       -65.75659        -32.28483        152.8775             -200               0             -200               0