! TOUCHSTONE file generated by CST MICROWAVE STUDIO
! Date and time: Tue Mar 18 00:02:32 2025
! Project name: oblique.cst
! Parameters = {Tilt=40; Fracture=1; B=12.5; D=160; F=5; Feed=2.85625; L=100; M=30; R=0.384908; S=1; Theta=180; length=57.125; wave=114.25}
! Header version: 2024
! Port assignment regex: !\s*Touchstone port\s*([0-9]+)\s*=\s*(CST MWS port|CST DES external port|CST DES block port)\s*(.+)\s* \(\"(.*)\"\)(\s*mode\s*([0-9]+))?.*
! Touchstone port assignment:
! Touchstone port 1 = CST MWS port 1 ("")
! Touchstone port 2 = CST MWS port 2 ("")
# GHz S DB R 50
1                     -0.0208095       -9.858765        -67.52504       -175.0929             -200               0             -200               0
1.0066               -0.02165491       -9.947848         -67.4987       -179.9454             -200               0             -200               0
1.0132               -0.02253198       -10.03735          -67.502        175.3118             -200               0             -200               0
1.0198               -0.02343738       -10.12726        -67.53506        170.6916             -200               0             -200               0
1.0264               -0.02436456       -10.21758        -67.59802        166.2095             -200               0             -200               0
1.033                -0.02530978       -10.30832        -67.69099        161.8834             -200               0             -200               0
1.0396               -0.02626983        -10.3995        -67.81401        157.7347             -200               0             -200               0
1.0462               -0.02724019       -10.49113        -67.96689        153.7883             -200               0             -200               0
1.05281              -0.02821403       -10.58324        -68.14912         150.074             -200               0             -200               0
1.05941              -0.02919071       -10.67586        -68.35967        146.6263             -200               0             -200               0
1.06601              -0.03016671       -10.76902         -68.5967        143.4853             -200               0             -200               0
1.07261              -0.03113904       -10.86276        -68.85715        140.6974             -200               0             -200               0
1.07921              -0.03210537       -10.95713        -69.13627        138.3139             -200               0             -200               0
1.08581              -0.03306666       -11.05216        -69.42696        136.3901             -200               0             -200               0
1.09241               -0.0340221       -11.14791        -69.71899        134.9814             -200               0             -200               0
1.09901              -0.03497302       -11.24442        -69.99829        134.1358             -200               0             -200               0
1.10561              -0.03592109       -11.34174        -70.24654        133.8835             -200               0             -200               0
1.11221              -0.03687025        -11.4399        -70.44151        134.2213             -200               0             -200               0
1.11881              -0.03782289       -11.53895        -70.55875        135.0963             -200               0             -200               0
1.12541              -0.03878502       -11.63894        -70.57509        136.3939             -200               0             -200               0
1.13201              -0.03976031       -11.73988        -70.47319        137.9404             -200               0             -200               0
1.13861              -0.04075614       -11.84181        -70.24598        139.5231             -200               0             -200               0
1.14521              -0.04177534       -11.94475        -69.89851        140.9263             -200               0             -200               0
1.15182              -0.04282823       -12.04872        -69.44658        141.9686             -200               0             -200               0
1.15842              -0.04391755       -12.15373        -68.91257        142.5261             -200               0             -200               0
1.16502              -0.04505233       -12.25979        -68.32077        142.5375             -200               0             -200               0
1.17162              -0.04623678       -12.36688        -67.69365        141.9935             -200               0             -200               0
1.17822              -0.04747721       -12.47501        -67.04996        140.9206             -200               0             -200               0
1.18482              -0.04877761       -12.58416        -66.40412        139.3659             -200               0             -200               0
1.19142              -0.05014352       -12.69433        -65.76665        137.3847             -200               0             -200               0
1.19802              -0.05157862       -12.80548        -65.14478        135.0335             -200               0             -200               0
1.20462              -0.05308363        -12.9176        -64.54329        132.3656             -200               0             -200               0
1.21122              -0.05466174       -13.03066        -63.96511        129.4291             -200               0             -200               0
1.21782              -0.05631265       -13.14465        -63.41191        126.2663             -200               0             -200               0
1.22442              -0.05803702       -13.25953        -62.88444         122.914             -200               0             -200               0
1.23102              -0.05983269        -13.3753        -62.38287        119.4041             -200               0             -200               0
1.23762              -0.06169819       -13.49193        -61.90697         115.764             -200               0             -200               0
1.24422              -0.06362857       -13.60941        -61.45625        112.0173             -200               0             -200               0
1.25083              -0.06562229       -13.72774        -61.03005        108.1846             -200               0             -200               0
1.25743              -0.06767344       -13.84691        -60.62763        104.2837             -200               0             -200               0
1.26403              -0.06977752       -13.96693        -60.24821        100.3305             -200               0             -200               0
1.27063              -0.07192948       -14.08781        -59.89097        96.33882             -200               0             -200               0
1.27723               -0.0741242       -14.20958        -59.55508        92.32124             -200               0             -200               0
1.28383              -0.07635562       -14.33226        -59.23973        88.28908             -200               0             -200               0
1.29043              -0.07861932        -14.4559        -58.94409        84.25272             -200               0             -200               0
1.29703              -0.08091072       -14.58052        -58.66736        80.22176             -200               0             -200               0
1.30363              -0.08322636       -14.70619        -58.40872        76.20517             -200               0             -200               0
1.31023              -0.08556185       -14.83297        -58.16735        72.21142             -200               0             -200               0
1.31683              -0.08791611        -14.9609        -57.94241        68.24858             -200               0             -200               0
1.32343              -0.09028823       -15.09008        -57.73305         64.3244             -200               0             -200               0
1.33003              -0.09267726       -15.22055        -57.53838        60.44633             -200               0             -200               0
1.33663              -0.09508468       -15.35241        -57.35746        56.62158             -200               0             -200               0
1.34323              -0.09751371       -15.48571        -57.18929        52.85712             -200               0             -200               0
1.34984              -0.09996639       -15.62055        -57.03282        49.15968             -200               0             -200               0
1.35644               -0.1024487       -15.75698        -56.88688        45.53567             -200               0             -200               0
1.36304               -0.1049673       -15.89508        -56.75025        41.99119             -200               0             -200               0
1.36964               -0.1075282       -16.03491        -56.62156        38.53184             -200               0             -200               0
1.37624               -0.1101394       -16.17654        -56.49937         35.1627             -200               0             -200               0
1.38284               -0.1128098       -16.32002        -56.38208        31.88808             -200               0             -200               0
1.38944               -0.1155497        -16.4654        -56.26799        28.71143             -200               0             -200               0
1.39604               -0.1183671       -16.61272        -56.15528        25.63508             -200               0             -200               0
1.40264               -0.1212733       -16.76202        -56.04203        22.66005             -200               0             -200               0
1.40924               -0.1242786       -16.91333        -55.92623        19.78579             -200               0             -200               0
1.41584               -0.1273917       -17.06667        -55.80583        17.01002             -200               0             -200               0
1.42244               -0.1306232       -17.22205        -55.67878        14.32851             -200               0             -200               0
1.42904               -0.1339814       -17.37949        -55.54305        11.73498             -200               0             -200               0
1.43564               -0.1374746       -17.53899        -55.39676        9.221015             -200               0             -200               0
1.44224               -0.1411114       -17.70055        -55.23817        6.776191             -200               0             -200               0
1.44884               -0.1448973       -17.86418        -55.06581        4.388182             -200               0             -200               0
1.45545               -0.1488389       -18.02986        -54.87849         2.04309             -200               0             -200               0
1.46205               -0.1529395        -18.1976         -54.6754      -0.2741506             -200               0             -200               0
1.46865                -0.157204       -18.36739        -54.45611       -2.579287             -200               0             -200               0
1.47525               -0.1616341       -18.53925        -54.22062       -4.888188             -200               0             -200               0
1.48185               -0.1662318       -18.71317        -53.96929       -7.216289             -200               0             -200               0
1.48845               -0.1709973       -18.88917        -53.70289       -9.578068             -200               0             -200               0
1.49505                -0.175931       -19.06727         -53.4225        -11.9866             -200               0             -200               0
1.50165                -0.181032        -19.2475        -53.12947        -14.4532             -200               0             -200               0
1.50825                -0.186302       -19.42989        -52.82535       -16.98722             -200               0             -200               0
1.51485               -0.1917369       -19.61449        -52.51181       -19.59593             -200               0             -200               0
1.52145               -0.1973379       -19.80136         -52.1906       -22.28453             -200               0             -200               0
1.52805               -0.2031047       -19.99057        -51.86346       -25.05626             -200               0             -200               0
1.53465               -0.2090375       -20.18218        -51.53209       -27.91252             -200               0             -200               0
1.54125               -0.2151377       -20.37629        -51.19812       -30.85316             -200               0             -200               0
1.54785               -0.2214076         -20.573        -50.86304       -33.87661             -200               0             -200               0
1.55446               -0.2278516       -20.77241        -50.52824       -36.98022             -200               0             -200               0
1.56106               -0.2344748       -20.97462        -50.19495       -40.16038             -200               0             -200               0
1.56766               -0.2412837       -21.17976        -49.86425       -43.41281             -200               0             -200               0
1.57426               -0.2482891       -21.38795        -49.53709       -46.73268             -200               0             -200               0
1.58086               -0.2555007        -21.5993        -49.21427       -50.11484             -200               0             -200               0
1.58746               -0.2629331       -21.81396        -48.89648       -53.55384             -200               0             -200               0
1.59406               -0.2706002       -22.03202        -48.58425       -57.04416             -200               0             -200               0
1.60066               -0.2785199       -22.25362        -48.27803       -60.58019             -200               0             -200               0
1.60726                -0.286712       -22.47888        -47.97815       -64.15638             -200               0             -200               0
1.61386                -0.295197        -22.7079        -47.68483       -67.76725             -200               0             -200               0
1.62046               -0.3039975       -22.94077        -47.39823       -71.40742             -200               0             -200               0
1.62706               -0.3131394       -23.17761        -47.11841       -75.07167             -200               0             -200               0
1.63366               -0.3226459       -23.41847        -46.84536       -78.75497             -200               0             -200               0
1.64026               -0.3325477       -23.66345        -46.57901       -82.45245             -200               0             -200               0
1.64686               -0.3428689       -23.91259        -46.31921       -86.15948             -200               0             -200               0
1.65347               -0.3536385       -24.16594        -46.06576       -89.87161             -200               0             -200               0
1.66007               -0.3648847       -24.42354        -45.81841       -93.58465             -200               0             -200               0
1.66667               -0.3766352       -24.68541        -45.57684       -97.29467             -200               0             -200               0
1.67327                -0.388919       -24.95156        -45.34071        -100.998             -200               0             -200               0
1.67987               -0.4017629         -25.222        -45.10961       -104.6911             -200               0             -200               0
1.68647               -0.4151938       -25.49672        -44.88309        -108.371             -200               0             -200               0
1.69307               -0.4292354       -25.77571        -44.66066       -112.0349             -200               0             -200               0
1.69967               -0.4439131       -26.05895        -44.44178       -115.6802             -200               0             -200               0
1.70627               -0.4592505       -26.34642        -44.22589        -119.305             -200               0             -200               0
1.71287               -0.4752678        -26.6381         -44.0124       -122.9074             -200               0             -200               0
1.71947               -0.4919856       -26.93397        -43.80068       -126.4863             -200               0             -200               0
1.72607               -0.5094229       -27.23401        -43.59009       -130.0407             -200               0             -200               0
1.73267               -0.5275979       -27.53822        -43.37995       -133.5704             -200               0             -200               0
1.73927               -0.5465272       -27.84659         -43.1696       -137.0753             -200               0             -200               0
1.74587               -0.5662266       -28.15913        -42.95837       -140.5563             -200               0             -200               0
1.75248               -0.5867127       -28.47585        -42.74559       -144.0143             -200               0             -200               0
1.75908               -0.6080005        -28.7968        -42.53063       -147.4512             -200               0             -200               0
1.76568               -0.6301041       -29.12201        -42.31286       -150.8691             -200               0             -200               0
1.77228               -0.6530423       -29.45155        -42.09171       -154.2707             -200               0             -200               0
1.77888               -0.6768302       -29.78551        -41.86666       -157.6592             -200               0             -200               0
1.78548                -0.701486       -30.12398        -41.63723       -161.0382             -200               0             -200               0
1.79208               -0.7270328       -30.46707        -41.40305       -164.4116             -200               0             -200               0
1.79868               -0.7534921       -30.81491        -41.16377       -167.7838             -200               0             -200               0
1.80528               -0.7808899       -31.16765        -40.91918       -171.1593             -200               0             -200               0
1.81188               -0.8092562       -31.52544        -40.66913       -174.5428             -200               0             -200               0
1.81848               -0.8386234       -31.88846        -40.41355       -177.9389             -200               0             -200               0
1.82508               -0.8690295       -32.25687        -40.15248        178.6476             -200               0             -200               0
1.83168               -0.9005164       -32.63088        -39.88604         175.212             -200               0             -200               0
1.83828                -0.933129       -33.01065        -39.61443        171.7499             -200               0             -200               0
1.84488               -0.9669208        -33.3964        -39.33793        168.2571             -200               0             -200               0
1.85149                 -1.00195       -33.78829        -39.05689        164.7298             -200               0             -200               0
1.85809                -1.038276       -34.18652        -38.77172        161.1643             -200               0             -200               0
1.86469                -1.075969       -34.59126        -38.48285        157.5577             -200               0             -200               0
1.87129                -1.115102       -35.00266         -38.1908        153.9073             -200               0             -200               0
1.87789                -1.155753       -35.42086        -37.89607        150.2106             -200               0             -200               0
1.88449                -1.198008         -35.846        -37.59921         146.466             -200               0             -200               0
1.89109                -1.241956       -36.27816        -37.30076        142.6721             -200               0             -200               0
1.89769                -1.287693       -36.71742        -37.00127        138.8278             -200               0             -200               0
1.90429                -1.335316       -37.16383        -36.70129        134.9325             -200               0             -200               0
1.91089                 -1.38493       -37.61738        -36.40133         130.986             -200               0             -200               0
1.91749                -1.436643       -38.07808        -36.10191        126.9883             -200               0             -200               0
1.92409                -1.490567       -38.54584        -35.80352        122.9399             -200               0             -200               0
1.93069                -1.546819       -39.02058        -35.50663        118.8412             -200               0             -200               0
1.93729                -1.605515       -39.50217        -35.21166        114.6932             -200               0             -200               0
1.94389                -1.666777       -39.99043        -34.91902        110.4969             -200               0             -200               0
1.9505                  -1.73073       -40.48515        -34.62909        106.2533             -200               0             -200               0
1.9571                 -1.797501       -40.98609        -34.34223        101.9639             -200               0             -200               0
1.9637                 -1.867216       -41.49294        -34.05874        97.62996             -200               0             -200               0
1.9703                 -1.940007       -42.00537        -33.77893        93.25301             -200               0             -200               0
1.9769                 -2.016006       -42.52303        -33.50305        88.83456             -200               0             -200               0
1.9835                 -2.095346       -43.04547        -33.23135        84.37617             -200               0             -200               0
1.9901                 -2.178161       -43.57229        -32.96403        79.87944             -200               0             -200               0
1.9967                 -2.264591       -44.10297         -32.7013        75.34597             -200               0             -200               0
2.0033                  -2.35477       -44.63699        -32.44332        70.77733             -200               0             -200               0
2.0099                 -2.448843        -45.1738        -32.19024        66.17512             -200               0             -200               0
2.0165                 -2.546949       -45.71279         -31.9422        61.54091             -200               0             -200               0
2.0231                 -2.649235       -46.25334        -31.69931        56.87622             -200               0             -200               0
2.0297                 -2.755847       -46.79475        -31.46167        52.18257             -200               0             -200               0
2.0363                 -2.866937       -47.33633        -31.22937        47.46143             -200               0             -200               0
2.0429                 -2.982661       -47.87732        -31.00248        42.71424             -200               0             -200               0
2.0495                 -3.103177       -48.41691        -30.78107        37.94239             -200               0             -200               0
2.05611                 -3.22865       -48.95427         -30.5652        33.14725             -200               0             -200               0
2.06271                 -3.35925        -49.4885         -30.3549        28.33013             -200               0             -200               0
2.06931                -3.495154       -50.01866         -30.1502        23.49232             -200               0             -200               0
2.07591                -3.636547       -50.54373        -29.95115        18.63505             -200               0             -200               0
2.08251                 -3.78362       -51.06263        -29.75776        13.75951             -200               0             -200               0
2.08911                -3.936577       -51.57422        -29.57005        8.866884             -200               0             -200               0
2.09571                -4.095629       -52.07725        -29.38802        3.958274             -200               0             -200               0
2.10231                -4.260999       -52.57038        -29.21168      -0.9652239             -200               0             -200               0
2.10891                -4.432923       -53.05216        -29.04104       -5.902556             -200               0             -200               0
2.11551                -4.611649       -53.52102         -28.8761       -10.85271             -200               0             -200               0
2.12211                -4.797442       -53.97522        -28.71684       -15.81468             -200               0             -200               0
2.12871                -4.990577        -54.4129        -28.56326       -20.78753             -200               0             -200               0
2.13531                -5.191351       -54.83197        -28.41535       -25.77032             -200               0             -200               0
2.14191                -5.400073       -55.23013        -28.27311       -30.76214             -200               0             -200               0
2.14851                -5.617071       -55.60484         -28.1365       -35.76212             -200               0             -200               0
2.15512                -5.842693       -55.95326        -28.00553        -40.7694             -200               0             -200               0
2.16172                -6.077304       -56.27225        -27.88017       -45.78315             -200               0             -200               0
2.16832                -6.321286       -56.55827         -27.7604       -50.80256             -200               0             -200               0
2.17492                -6.575038       -56.80734        -27.64621       -55.82683             -200               0             -200               0
2.18152                -6.838979         -57.015        -27.53757       -60.85518             -200               0             -200               0
2.18812                -7.113539       -57.17622        -27.43446       -65.88684             -200               0             -200               0
2.19472                -7.399158       -57.28527        -27.33687       -70.92109             -200               0             -200               0
2.20132                -7.696283       -57.33571        -27.24476       -75.95717             -200               0             -200               0
2.20792                -8.005357       -57.32018        -27.15812       -80.99437             -200               0             -200               0
2.21452                -8.326813       -57.23032        -27.07692       -86.03197             -200               0             -200               0
2.22112                -8.661052       -57.05659        -27.00113       -91.06926             -200               0             -200               0
2.22772                -9.008429       -56.78808        -26.93074       -96.10556             -200               0             -200               0
2.23432                -9.369225       -56.41237        -26.86571       -101.1402             -200               0             -200               0
2.24092                -9.743602       -55.91523        -26.80602       -106.1724             -200               0             -200               0
2.24752                -10.13156       -55.28044        -26.75164       -111.2016             -200               0             -200               0
2.25413                -10.53285       -54.48953        -26.70255       -116.2271             -200               0             -200               0
2.26073                -10.94692       -53.52159        -26.65871       -121.2481             -200               0             -200               0
2.26733                -11.37275       -52.35308         -26.6201       -126.2641             -200               0             -200               0
2.27393                -11.80872       -50.95784        -26.58669       -131.2744             -200               0             -200               0
2.28053                 -12.2524       -49.30732        -26.55844       -136.2783             -200               0             -200               0
2.28713                -12.70032       -47.37115        -26.53533        -141.275             -200               0             -200               0
2.29373                -13.14771       -45.11838        -26.51732        -146.264             -200               0             -200               0