! TOUCHSTONE file generated by CST MICROWAVE STUDIO
! Date and time: Tue Mar 18 00:01:31 2025
! Project name: oblique.cst
! Parameters = {Tilt=30; Fracture=1; B=12.5; D=160; F=15; Feed=2.85625; L=100; M=10; R=0.384908; S=1; Theta=90; length=57.125; wave=114.25}
! Header version: 2024
! Port assignment regex: !\s*Touchstone port\s*([0-9]+)\s*=\s*(CST MWS port|CST DES external port|CST DES block port)\s*(.+)\s* \(\"(.*)\"\)(\s*mode\s*([0-9]+))?.*
! Touchstone port assignment:
! Touchstone port 1 = CST MWS port 1 ("")
! Touchstone port 2 = CST MWS port 2 ("")
# GHz S DB R 50
1                    -0.01908884       -9.790948        -68.45039       -158.1896             -200               0             -200               0
1.00662              -0.01989171       -9.879824        -68.43845       -163.0056             -200               0             -200               0
1.01325              -0.02073108       -9.969075        -68.46395       -167.6951             -200               0             -200               0
1.01987              -0.02160077       -10.05869        -68.52761       -172.2399             -200               0             -200               0
1.02649              -0.02249634       -10.14867        -68.63034        -176.618             -200               0             -200               0
1.03311              -0.02340958       -10.23901        -68.77309         179.198             -200               0             -200               0
1.03974               -0.0243356       -10.32973         -68.9568        175.2413             -200               0             -200               0
1.04636              -0.02526833       -10.42086        -69.18221        171.5532             -200               0             -200               0
1.05298              -0.02620034       -10.51242        -69.44961        168.1849             -200               0             -200               0
1.0596               -0.02712759       -10.60445        -69.75839        165.1994             -200               0             -200               0
1.06623               -0.0280459       -10.69699        -70.10634        162.6743             -200               0             -200               0
1.07285              -0.02895137       -10.79009        -70.48857        160.7031             -200               0             -200               0
1.07947              -0.02984101       -10.88381        -70.89587        159.3954             -200               0             -200               0
1.08609              -0.03071416        -10.9782        -71.31248        158.8712             -200               0             -200               0
1.09272              -0.03157077       -11.07332        -71.71333        159.2464             -200               0             -200               0
1.09934              -0.03241164       -11.16923        -72.06183         160.601             -200               0             -200               0
1.10596              -0.03323918       -11.26599        -72.31017        162.9295             -200               0             -200               0
1.11258              -0.03405831       -11.36366        -72.40557        166.0828             -200               0             -200               0
1.11921              -0.03487313       -11.46229        -72.30392        169.7386             -200               0             -200               0
1.12583              -0.03568934       -11.56193        -71.98615        173.4467             -200               0             -200               0
1.13245              -0.03651437       -11.66263        -71.46657        176.7471             -200               0             -200               0
1.13907              -0.03735635       -11.76442        -70.78643        179.2959             -200               0             -200               0
1.1457               -0.03822312       -11.86732        -69.99793       -179.0794             -200               0             -200               0
1.15232               -0.0391228       -11.97136        -69.14971       -178.4003             -200               0             -200               0
1.15894              -0.04006523       -12.07656        -68.27965       -178.5945             -200               0             -200               0
1.16556              -0.04105851       -12.18291        -67.41389       -179.5486             -200               0             -200               0
1.17219              -0.04211155       -12.29041        -66.56891         178.859             -200               0             -200               0
1.17881              -0.04323186       -12.39904        -65.75422        176.7402             -200               0             -200               0
1.18543              -0.04442736       -12.50879        -64.97476        174.1917             -200               0             -200               0
1.19205              -0.04570346       -12.61963        -64.23252        171.2943             -200               0             -200               0
1.19868              -0.04706679       -12.73153        -63.52778        168.1139             -200               0             -200               0
1.2053               -0.04851958       -12.84445        -62.85979        164.7042             -200               0             -200               0
1.21192              -0.05006609       -12.95835        -62.22723        161.1091             -200               0             -200               0
1.21854              -0.05170706        -13.0732        -61.62853        157.3644             -200               0             -200               0
1.22517              -0.05344318       -13.18896        -61.06199        153.4997             -200               0             -200               0
1.23179              -0.05527204       -13.30558        -60.52594        149.5395             -200               0             -200               0
1.23841              -0.05719258       -13.42305        -60.01873        145.5042             -200               0             -200               0
1.24503              -0.05920052       -13.54133        -59.53879        141.4114             -200               0             -200               0
1.25166              -0.06129069       -13.66039        -59.08463        137.2759             -200               0             -200               0
1.25828              -0.06345771       -13.78024        -58.65488        133.1108             -200               0             -200               0
1.2649               -0.06569593       -13.90086         -58.2482        128.9274             -200               0             -200               0
1.27152              -0.06799765       -14.02225        -57.86337        124.7358             -200               0             -200               0
1.27815              -0.07035696       -14.14444        -57.49922         120.545             -200               0             -200               0
1.28477              -0.07276594       -14.26744        -57.15462        116.3633             -200               0             -200               0
1.29139               -0.0752189       -14.39129         -56.8285        112.1983             -200               0             -200               0
1.29801              -0.07770911       -14.51603        -56.51982        108.0569             -200               0             -200               0
1.30464               -0.0802311       -14.64172        -56.22755        103.9457             -200               0             -200               0
1.31126              -0.08278118       -14.76841        -55.95069        99.87089             -200               0             -200               0
1.31788              -0.08535628       -14.89618         -55.6882        95.83815             -200               0             -200               0
1.3245               -0.08795359        -15.0251        -55.43907          91.853             -200               0             -200               0
1.33113              -0.09057375       -15.15524        -55.20223        87.92055             -200               0             -200               0
1.33775              -0.09321733       -15.28668        -54.97661        84.04563             -200               0             -200               0
1.34437              -0.09588738       -15.41951        -54.76108        80.23268             -200               0             -200               0
1.35099              -0.09858798       -15.55381        -54.55447        76.48573             -200               0             -200               0
1.35762               -0.1013254       -15.68964        -54.35554        72.80836             -200               0             -200               0
1.36424               -0.1041054       -15.82709        -54.16303         69.2036             -200               0             -200               0
1.37086               -0.1069378       -15.96622        -53.97558        65.67385             -200               0             -200               0
1.37748               -0.1098326       -16.10709        -53.79179        62.22075             -200               0             -200               0
1.38411               -0.1127996       -16.24975        -53.61023        58.84513             -200               0             -200               0
1.39073               -0.1158505       -16.39424        -53.42942        55.54682             -200               0             -200               0
1.39735               -0.1189954       -16.54061        -53.24784        52.32461             -200               0             -200               0
1.40397                -0.122248       -16.68886          -53.064        49.17612             -200               0             -200               0
1.4106                -0.1256192       -16.83903        -52.87642        46.09772             -200               0             -200               0
1.41722               -0.1291201        -16.9911        -52.68367        43.08454             -200               0             -200               0
1.42384               -0.1327607       -17.14508        -52.48441        40.13042             -200               0             -200               0
1.43046               -0.1365519       -17.30094        -52.27745        37.22799             -200               0             -200               0
1.43709               -0.1405014       -17.45869        -52.06173        34.36879             -200               0             -200               0
1.44371               -0.1446166       -17.61828        -51.83638        31.54341             -200               0             -200               0
1.45033               -0.1489026       -17.77969        -51.60078        28.74174             -200               0             -200               0
1.45695               -0.1533647        -17.9429         -51.3545        25.95318             -200               0             -200               0
1.46358               -0.1580045       -18.10787         -51.0974          23.167             -200               0             -200               0
1.4702                -0.1628236       -18.27458        -50.82956        20.37255             -200               0             -200               0
1.47682               -0.1678212       -18.44301         -50.5513        17.55962             -200               0             -200               0
1.48344               -0.1729945       -18.61314        -50.26317        14.71867             -200               0             -200               0
1.49007               -0.1783408       -18.78496         -49.9659        11.84104             -200               0             -200               0
1.49669               -0.1838565       -18.95849        -49.66037        8.919162             -200               0             -200               0
1.50331               -0.1895344       -19.13372        -49.34759        5.946623             -200               0             -200               0
1.50993               -0.1953692       -19.31071        -49.02867        2.918263             -200               0             -200               0
1.51656               -0.2013555       -19.48948        -48.70473      -0.1698385             -200               0             -200               0
1.52318               -0.2074871       -19.67009        -48.37693       -3.320395             -200               0             -200               0
1.5298                -0.2137577       -19.85261        -48.04644       -6.534989             -200               0             -200               0
1.53642               -0.2201629       -20.03713        -47.71435       -9.814169             -200               0             -200               0
1.54305               -0.2266986       -20.22375        -47.38173       -13.15757             -200               0             -200               0
1.54967               -0.2333627       -20.41258        -47.04956       -16.56402             -200               0             -200               0
1.55629               -0.2401547       -20.60374        -46.71875       -20.03168             -200               0             -200               0
1.56291               -0.2470769       -20.79737        -46.39015       -23.55816             -200               0             -200               0
1.56954               -0.2541319        -20.9936        -46.06448       -27.14062             -200               0             -200               0
1.57616               -0.2613278       -21.19258        -45.74241       -30.77588             -200               0             -200               0
1.58278               -0.2686727       -21.39448        -45.42451       -34.46049             -200               0             -200               0
1.5894                 -0.276178       -21.59943        -45.11127       -38.19082             -200               0             -200               0
1.59603               -0.2838587       -21.80759        -44.80311       -41.96313             -200               0             -200               0
1.60265               -0.2917329       -22.01911        -44.50038       -45.77359             -200               0             -200               0
1.60927               -0.2998191       -22.23412        -44.20334       -49.61837             -200               0             -200               0
1.61589               -0.3081396       -22.45275        -43.91221       -53.49363             -200               0             -200               0
1.62252               -0.3167196       -22.67513        -43.62715       -57.39562             -200               0             -200               0
1.62914               -0.3255844       -22.90137        -43.34825       -61.32059             -200               0             -200               0
1.63576               -0.3347606       -23.13154        -43.07557       -65.26491             -200               0             -200               0
1.64238               -0.3442796       -23.36574         -42.8091       -69.22505             -200               0             -200               0
1.64901               -0.3541701       -23.60402        -42.54882       -73.19756             -200               0             -200               0
1.65563               -0.3644615       -23.84643        -42.29464       -77.17914             -200               0             -200               0
1.66225               -0.3751838       -24.09299        -42.04644       -81.16659             -200               0             -200               0
1.66887               -0.3863671       -24.34373        -41.80407       -85.15687             -200               0             -200               0
1.6755                -0.3980383       -24.59863        -41.56734       -89.14706             -200               0             -200               0
1.68212               -0.4102281       -24.85769        -41.33604       -93.13439             -200               0             -200               0
1.68874               -0.4229604       -25.12088        -41.10991       -97.11627             -200               0             -200               0
1.69536               -0.4362594       -25.38816        -40.88867       -101.0903             -200               0             -200               0
1.70199               -0.4501483        -25.6595        -40.67202       -105.0541             -200               0             -200               0
1.70861               -0.4646468       -25.93486        -40.45961       -109.0057             -200               0             -200               0
1.71523               -0.4797732       -26.21419         -40.2511       -112.9432             -200               0             -200               0
1.72185               -0.4955428       -26.49746         -40.0461       -116.8649             -200               0             -200               0
1.72848               -0.5119708       -26.78463         -39.8442       -120.7695             -200               0             -200               0
1.7351                -0.5290666       -27.07567        -39.64498       -124.6557             -200               0             -200               0
1.74172               -0.5468422       -27.37059          -39.448       -128.5227             -200               0             -200               0
1.74834               -0.5653049       -27.66939         -39.2528       -132.3697             -200               0             -200               0
1.75497               -0.5844643       -27.97209        -39.05893       -136.1964             -200               0             -200               0
1.76159               -0.6043273       -28.27873         -38.8659       -140.0028             -200               0             -200               0
1.76821               -0.6249008       -28.58938        -38.67324       -143.7891             -200               0             -200               0
1.77483               -0.6461939       -28.90414        -38.48049       -147.5558             -200               0             -200               0
1.78146               -0.6682142        -29.2231        -38.28717        -151.304             -200               0             -200               0
1.78808               -0.6909748       -29.54642        -38.09284       -155.0348             -200               0             -200               0
1.7947                -0.7144867       -29.87424        -37.89706       -158.7498             -200               0             -200               0
1.80132               -0.7387694       -30.20676        -37.69943       -162.4508             -200               0             -200               0
1.80795               -0.7638418       -30.54419        -37.49956         -166.14             -200               0             -200               0
1.81457               -0.7897286       -30.88673        -37.29713       -169.8199             -200               0             -200               0
1.82119               -0.8164598       -31.23463        -37.09183       -173.4931             -200               0             -200               0
1.82781                 -0.84407       -31.58814         -36.8834       -177.1625             -200               0             -200               0
1.83444               -0.8726007       -31.94752        -36.67166        179.1689             -200               0             -200               0
1.84106               -0.9020984       -32.31304        -36.45644        175.4978             -200               0             -200               0
1.84768               -0.9326166       -32.68496        -36.23766         171.821             -200               0             -200               0
1.8543                -0.9642153       -33.06354        -36.01528        168.1351             -200               0             -200               0
1.86093                -0.996961       -33.44902        -35.78932        164.4369             -200               0             -200               0
1.86755                -1.030928       -33.84165        -35.55985        160.7232             -200               0             -200               0
1.87417                -1.066195       -34.24164          -35.327        156.9907             -200               0             -200               0
1.88079                -1.102849       -34.64919        -35.09095        153.2365             -200               0             -200               0
1.88742                -1.140983       -35.06446        -34.85191        149.4578             -200               0             -200               0
1.89404                -1.180695       -35.48758        -34.61016        145.6521             -200               0             -200               0
1.90066                -1.222088       -35.91867        -34.36598        141.8168             -200               0             -200               0
1.90728                -1.265271       -36.35776        -34.11969          137.95             -200               0             -200               0
1.91391                -1.310358       -36.80489        -33.87166        134.0498             -200               0             -200               0
1.92053                -1.357465       -37.26003        -33.62223        130.1146             -200               0             -200               0
1.92715                -1.406713       -37.72311         -33.3718        126.1431             -200               0             -200               0
1.93377                -1.458223       -38.19401        -33.12074        122.1343             -200               0             -200               0
1.9404                 -1.512124       -38.67257        -32.86944        118.0875             -200               0             -200               0
1.94702                 -1.56854       -39.15858        -32.61829        114.0021             -200               0             -200               0
1.95364                -1.627599       -39.65179        -32.36766        109.8778             -200               0             -200               0
1.96026                -1.689431        -40.1519        -32.11792        105.7146             -200               0             -200               0
1.96689                -1.754167       -40.65856        -31.86944        101.5126             -200               0             -200               0
1.97351                -1.821932       -41.17137        -31.62256        97.27207             -200               0             -200               0
1.98013                -1.892859       -41.68993         -31.3776        92.99353             -200               0             -200               0
1.98675                -1.967077       -42.21376        -31.13487        88.67758             -200               0             -200               0
1.99338                -2.044713       -42.74235        -30.89468        84.32494             -200               0             -200               0
2                      -2.125894       -43.27518        -30.65729        79.93644             -200               0             -200               0
2.00662                -2.210752       -43.81167        -30.42296        75.51301             -200               0             -200               0
2.01325                -2.299412       -44.35122        -30.19193        71.05564             -200               0             -200               0
2.01987                -2.392001       -44.89321        -29.96443         66.5654             -200               0             -200               0
2.02649                -2.488651       -45.43698        -29.74066        62.04338             -200               0             -200               0
2.03311                -2.589491       -45.98185        -29.52081        57.49072             -200               0             -200               0
2.03974                 -2.69465       -46.52712        -29.30504         52.9086             -200               0             -200               0
2.04636                -2.804268       -47.07204        -29.09351        48.29819             -200               0             -200               0
2.05298                -2.918477       -47.61586        -28.88637        43.66069             -200               0             -200               0
2.0596                  -3.03742       -48.15779        -28.68374         38.9973             -200               0             -200               0
2.06623                -3.161244         -48.697        -28.48575         34.3092             -200               0             -200               0
2.07285                -3.290101       -49.23264        -28.29248        29.59759             -200               0             -200               0
2.07947                -3.424149       -49.76382        -28.10405        24.86364             -200               0             -200               0
2.08609                -3.563557       -50.28957        -27.92052        20.10852             -200               0             -200               0
2.09272                -3.708498       -50.80891        -27.74197        15.33337             -200               0             -200               0
2.09934                -3.859161       -51.32078        -27.56848        10.53934             -200               0             -200               0
2.10596                -4.015743       -51.82402        -27.40009        5.727525             -200               0             -200               0
2.11258                -4.178453       -52.31742        -27.23685       0.8990184             -200               0             -200               0
2.11921                -4.347515       -52.79964         -27.0788       -3.945107             -200               0             -200               0
2.12583                -4.523166       -53.26925        -26.92599       -8.803803             -200               0             -200               0
2.13245                -4.705663       -53.72465        -26.77844       -13.67604             -200               0             -200               0
2.13907                -4.895274       -54.16412        -26.63619       -18.56081             -200               0             -200               0
2.1457                 -5.092287        -54.5857        -26.49924       -23.45713             -200               0             -200               0
2.15232                 -5.29701       -54.98728        -26.36762       -28.36403             -200               0             -200               0
2.15894                -5.509766       -55.36646        -26.24135       -33.28057             -200               0             -200               0
2.16556                -5.730901       -55.72057        -26.12042        -38.2058             -200               0             -200               0
2.17219                -5.960779       -56.04661        -26.00485       -43.13883             -200               0             -200               0
2.17881                 -6.19978       -56.34122        -25.89464       -48.07875             -200               0             -200               0
2.18543                -6.448306       -56.60059        -25.78979       -53.02469             -200               0             -200               0
2.19205                -6.706773       -56.82041        -25.69029       -57.97578             -200               0             -200               0
2.19868                -6.975609       -56.99585        -25.59615       -62.93117             -200               0             -200               0
2.2053                 -7.255256       -57.12136        -25.50736       -67.89002             -200               0             -200               0
2.21192                -7.546157        -57.1907         -25.4239        -72.8515             -200               0             -200               0
2.21854                -7.848752       -57.19674        -25.34577       -77.81479             -200               0             -200               0
2.22517                -8.163466       -57.13135        -25.27296       -82.77909             -200               0             -200               0
2.23179                -8.490695        -56.9853        -25.20544       -87.74359             -200               0             -200               0
2.23841                -8.830784       -56.74802        -25.14321       -92.70751             -200               0             -200               0
2.24503                -9.184005       -56.40749        -25.08624       -97.67005             -200               0             -200               0
2.25166                -9.550509       -55.94999        -25.03452       -102.6304             -200               0             -200               0
2.25828                 -9.93029       -55.35992        -24.98802       -107.5879             -200               0             -200               0
2.2649                 -10.32311       -54.61957        -24.94672       -112.5416             -200               0             -200               0
2.27152                 -10.7284       -53.70892         -24.9106       -117.4909             -200               0             -200               0
2.27815                 -11.1452       -52.60561        -24.87962       -122.4349             -200               0             -200               0
2.28477                -11.57194       -51.28484        -24.85376       -127.3729             -200               0             -200               0
2.29139                -12.00632       -49.71962        -24.83298        -132.304             -200               0             -200               0
2.29801                -12.44506       -47.88141        -24.81726       -137.2277             -200               0             -200               0