! TOUCHSTONE file generated by CST MICROWAVE STUDIO
! Date and time: Sat Mar  8 13:53:57 2025
! Project name: non_fractured.cst
! Parameters = {B=2.5; D=160; F=5; Feed=2.85625; L=100; M=5; R=0.384908; S=2; Theta=270; length=57.125; wave=114.25}
! Header version: 2024
! Port assignment regex: !\s*Touchstone port\s*([0-9]+)\s*=\s*(CST MWS port|CST DES external port|CST DES block port)\s*(.+)\s* \(\"(.*)\"\)(\s*mode\s*([0-9]+))?.*
! Touchstone port assignment:
! Touchstone port 1 = CST MWS port 1 ("")
! Touchstone port 2 = CST MWS port 2 ("")
# GHz S DB R 50
1                    -0.01947482       -9.746547        -66.48252       -92.58334             -200               0             -200               0
1.0066               -0.01997625       -9.834004        -65.88202       -98.71023             -200               0             -200               0
1.0132               -0.02050057        -9.92219        -65.33587       -104.7608             -200               0             -200               0
1.0198               -0.02105371        -10.0111        -64.83912       -110.7409             -200               0             -200               0
1.0264               -0.02163906       -10.10073        -64.38775       -116.6548             -200               0             -200               0
1.033                -0.02225953       -10.19108        -63.97849       -122.5048             -200               0             -200               0
1.0396               -0.02291982       -10.28212        -63.60862       -128.2924             -200               0             -200               0
1.0462                 -0.023622       -10.37384        -63.27593        -134.018             -200               0             -200               0
1.05281              -0.02436786       -10.46622        -62.97857       -139.6811             -200               0             -200               0
1.05941              -0.02515907       -10.55924        -62.71505       -145.2803             -200               0             -200               0
1.06601              -0.02599589       -10.65288        -62.48413       -150.8135             -200               0             -200               0
1.07261              -0.02687691       -10.74712        -62.28482       -156.2778             -200               0             -200               0
1.07921              -0.02780073       -10.84194        -62.11633       -161.6697             -200               0             -200               0
1.08581              -0.02876536       -10.93733        -61.97803       -166.9843             -200               0             -200               0
1.09241              -0.02976772       -11.03326        -61.86948       -172.2164             -200               0             -200               0
1.09901              -0.03080505       -11.12973        -61.79033       -177.3592             -200               0             -200               0
1.10561              -0.03187184       -11.22673        -61.74036        177.5951             -200               0             -200               0
1.11221              -0.03296289       -11.32428        -61.71944        172.6556             -200               0             -200               0
1.11881               -0.0340744       -11.42237         -61.7275        167.8332             -200               0             -200               0
1.12541              -0.03520124       -11.52102        -61.76448        163.1407             -200               0             -200               0
1.13201              -0.03633657       -11.62026        -61.83033        158.5929             -200               0             -200               0
1.13861              -0.03747847       -11.72011        -61.92494        154.2073             -200               0             -200               0
1.14521              -0.03861839       -11.82061        -62.04803        150.0044             -200               0             -200               0
1.15182              -0.03975503       -11.92181        -62.19911        146.0082             -200               0             -200               0
1.15842              -0.04088471       -12.02374        -62.37727        142.2463             -200               0             -200               0
1.16502              -0.04200554       -12.12647        -62.58104        138.7507             -200               0             -200               0
1.17162              -0.04311397       -12.23006         -62.8081        135.5582             -200               0             -200               0
1.17822              -0.04421207       -12.33456        -63.05495        132.7094             -200               0             -200               0
1.18482              -0.04529799       -12.44005        -63.31644        130.2486             -200               0             -200               0
1.19142              -0.04637725       -12.54658         -63.5853        128.2213             -200               0             -200               0
1.19802              -0.04745004       -12.65421        -63.85155        126.6705             -200               0             -200               0
1.20462              -0.04852127       -12.76302        -64.10208          125.63             -200               0             -200               0
1.21122              -0.04959854       -12.87307        -64.32055        125.1151             -200               0             -200               0
1.21782              -0.05068641        -12.9844        -64.48797         125.111             -200               0             -200               0
1.22442               -0.0517937       -13.09707        -64.58432        125.5619             -200               0             -200               0
1.23102              -0.05292785       -13.21112         -64.5913        126.3639             -200               0             -200               0
1.23762              -0.05410031        -13.3266        -64.49575        127.3692             -200               0             -200               0
1.24422              -0.05531948       -13.44353        -64.29258        128.4031             -200               0             -200               0
1.25083              -0.05659566       -13.56194        -63.98604        129.2898             -200               0             -200               0
1.25743              -0.05794001       -13.68183         -63.5886        129.8793             -200               0             -200               0
1.26403              -0.05936075       -13.80322        -63.11813        130.0644             -200               0             -200               0
1.27063              -0.06086954       -13.92611        -62.59441        129.7864             -200               0             -200               0
1.27723              -0.06247479       -14.05048        -62.03638        129.0284             -200               0             -200               0
1.28383              -0.06418561       -14.17631        -61.46039        127.8048             -200               0             -200               0
1.29043              -0.06600866       -14.30359        -60.87955        126.1491             -200               0             -200               0
1.29703              -0.06795369       -14.43229        -60.30382        124.1048             -200               0             -200               0
1.30363              -0.07002573       -14.56237        -59.74041        121.7184             -200               0             -200               0
1.31023              -0.07222676        -14.6938         -59.1943        119.0358             -200               0             -200               0
1.31683              -0.07456463       -14.82655        -58.66884        116.0992             -200               0             -200               0
1.32343              -0.07703786       -14.96058        -58.16608        112.9473             -200               0             -200               0
1.33003              -0.07964923       -15.09585        -57.68722        109.6141             -200               0             -200               0
1.33663              -0.08239823       -15.23234         -57.2328        106.1296             -200               0             -200               0
1.34323               -0.0852833       -15.37002        -56.80296        102.5201             -200               0             -200               0
1.34984              -0.08830241       -15.50886        -56.39749        98.80873             -200               0             -200               0
1.35644              -0.09145101       -15.64886        -56.01604        95.01582             -200               0             -200               0
1.36304              -0.09472814          -15.79        -55.65808        91.15934             -200               0             -200               0
1.36964              -0.09812811       -15.93229        -55.32303        87.25534             -200               0             -200               0
1.37624               -0.1016475       -16.07574        -55.01024        83.31826             -200               0             -200               0
1.38284               -0.1052807       -16.22036        -54.71905        79.36125             -200               0             -200               0
1.38944               -0.1090243       -16.36618        -54.44874         75.3964             -200               0             -200               0
1.39604               -0.1128737       -16.51324        -54.19862        71.43496             -200               0             -200               0
1.40264               -0.1168257       -16.66158        -53.96793        67.48753             -200               0             -200               0
1.40924               -0.1208799       -16.81125        -53.75592        63.56417             -200               0             -200               0
1.41584               -0.1250327       -16.96231        -53.56182        59.67458             -200               0             -200               0
1.42244               -0.1292835       -17.11482        -53.38478        55.82815             -200               0             -200               0
1.42904               -0.1336358       -17.26884        -53.22393        52.03406             -200               0             -200               0
1.43564               -0.1380923       -17.42445        -53.07834         48.3013             -200               0             -200               0
1.44224               -0.1426531        -17.5817        -52.94696        44.63871             -200               0             -200               0
1.44884               -0.1473256       -17.74068        -52.82866        41.05496             -200               0             -200               0
1.45545               -0.1521175       -17.90145         -52.7222        37.55854             -200               0             -200               0
1.46205               -0.1570332       -18.06406        -52.62617         34.1576             -200               0             -200               0
1.46865               -0.1620849       -18.22858        -52.53904        30.85989             -200               0             -200               0
1.47525               -0.1672801       -18.39506        -52.45907         27.6726             -200               0             -200               0
1.48185               -0.1726295       -18.56354        -52.38434        24.60206             -200               0             -200               0
1.48845               -0.1781443       -18.73406        -52.31273        21.65354             -200               0             -200               0
1.49505                -0.183837       -18.90664        -52.24194        18.83084             -200               0             -200               0
1.50165               -0.1897175       -19.08131        -52.16948          16.136             -200               0             -200               0
1.50825               -0.1957982       -19.25808        -52.09269        13.56889             -200               0             -200               0
1.51485               -0.2020893       -19.43695        -52.00883        11.12678             -200               0             -200               0
1.52145               -0.2085999       -19.61792        -51.91513        8.804094             -200               0             -200               0
1.52805               -0.2153416       -19.80098        -51.80887         6.59209             -200               0             -200               0
1.53465               -0.2223193       -19.98611         -51.6875        4.478827             -200               0             -200               0
1.54125               -0.2295438       -20.17328        -51.54872        2.449255             -200               0             -200               0
1.54785               -0.2370169        -20.3625        -51.39064       0.4855399             -200               0             -200               0
1.55446               -0.2447445       -20.55372        -51.21188       -1.432379             -200               0             -200               0
1.56106               -0.2527296       -20.74693        -51.01161       -3.326021             -200               0             -200               0
1.56766                -0.260972       -20.94212        -50.78962       -5.217476             -200               0             -200               0
1.57426               -0.2694707       -21.13927        -50.54631       -7.128448             -200               0             -200               0
1.58086               -0.2782252       -21.33839        -50.28269       -9.079332             -200               0             -200               0
1.58746               -0.2872314       -21.53949        -50.00025       -11.08844             -200               0             -200               0
1.59406               -0.2964849       -21.74257        -49.70088       -13.17139             -200               0             -200               0
1.60066                -0.305983       -21.94769        -49.38678       -15.34077             -200               0             -200               0
1.60726               -0.3157202       -22.15487        -49.06032       -17.60597             -200               0             -200               0
1.61386               -0.3256886       -22.36419        -48.72391       -19.97325             -200               0             -200               0
1.62046               -0.3358858       -22.57573        -48.37995       -22.44597             -200               0             -200               0
1.62706                -0.346308       -22.78957        -48.03074       -25.02492             -200               0             -200               0
1.63366               -0.3569509       -23.00584        -47.67839       -27.70869             -200               0             -200               0
1.64026               -0.3678121       -23.22465        -47.32485       -30.49408             -200               0             -200               0
1.64686               -0.3788936       -23.44615        -46.97182        -33.3765             -200               0             -200               0
1.65347               -0.3901954       -23.67049        -46.62079       -36.35029             -200               0             -200               0
1.66007               -0.4017242       -23.89785        -46.27305       -39.40907             -200               0             -200               0
1.66667               -0.4134863       -24.12839        -45.92965       -42.54597             -200               0             -200               0
1.67327               -0.4254922       -24.36229        -45.59147       -45.75386             -200               0             -200               0
1.67987               -0.4377569       -24.59975        -45.25919       -49.02551             -200               0             -200               0
1.68647               -0.4502956       -24.84096        -44.93334       -52.35372             -200               0             -200               0
1.69307               -0.4631291        -25.0861         -44.6143        -55.7314             -200               0             -200               0
1.69967               -0.4762817       -25.33537        -44.30232       -59.15172             -200               0             -200               0
1.70627               -0.4897805       -25.58894        -43.99752       -62.60804             -200               0             -200               0
1.71287               -0.5036542       -25.84698        -43.69993       -66.09406             -200               0             -200               0
1.71947               -0.5179374       -26.10966        -43.40949       -69.60379             -200               0             -200               0
1.72607                -0.532664       -26.37711        -43.12603       -73.13156             -200               0             -200               0
1.73267                -0.547873       -26.64947        -42.84935       -76.67209             -200               0             -200               0
1.73927               -0.5636046       -26.92686        -42.57913       -80.22044             -200               0             -200               0
1.74587               -0.5798988       -27.20936        -42.31502       -83.77208             -200               0             -200               0
1.75248               -0.5968003       -27.49706        -42.05661       -87.32285             -200               0             -200               0
1.75908               -0.6143506          -27.79        -41.80344         -90.869             -200               0             -200               0
1.76568                -0.632594       -28.08824        -41.55499        -94.4072             -200               0             -200               0
1.77228               -0.6515744       -28.39178        -41.31071       -97.93456             -200               0             -200               0
1.77888               -0.6713336       -28.70064        -41.07002       -101.4486             -200               0             -200               0
1.78548               -0.6919159       -29.01479        -40.83231       -104.9475             -200               0             -200               0
1.79208               -0.7133598       -29.33422        -40.59693       -108.4296             -200               0             -200               0
1.79868               -0.7357052       -29.65889        -40.36323        -111.894             -200               0             -200               0
1.80528               -0.7589905       -29.98875        -40.13054       -115.3403             -200               0             -200               0
1.81188               -0.7832498       -30.32377        -39.89821       -118.7686             -200               0             -200               0
1.81848               -0.8085199       -30.66388        -39.66556       -122.1794             -200               0             -200               0
1.82508               -0.8348313       -31.00904        -39.43197       -125.5738             -200               0             -200               0
1.83168                -0.862214       -31.35921        -39.19682       -128.9537             -200               0             -200               0
1.83828               -0.8906979       -31.71435        -38.95953       -132.3211             -200               0             -200               0
1.84488               -0.9203108       -32.07445        -38.71958       -135.6787             -200               0             -200               0
1.85149               -0.9510801        -32.4395        -38.47649       -139.0296             -200               0             -200               0
1.85809               -0.9830311        -32.8095        -38.22985       -142.3772             -200               0             -200               0
1.86469                -1.016192       -33.18449        -37.97932       -145.7253             -200               0             -200               0
1.87129                 -1.05059       -33.56452        -37.72466        -149.078             -200               0             -200               0
1.87789                -1.086256       -33.94966        -37.46569       -152.4394             -200               0             -200               0
1.88449                -1.123218       -34.34002        -37.20231       -155.8138             -200               0             -200               0
1.89109                -1.161513       -34.73571        -36.93451       -159.2055             -200               0             -200               0
1.89769                -1.201179       -35.13687        -36.66239       -162.6188             -200               0             -200               0
1.90429                -1.242257       -35.54367        -36.38609       -166.0577             -200               0             -200               0
1.91089                -1.284795       -35.95629        -36.10584       -169.5261             -200               0             -200               0
1.91749                -1.328847       -36.37493        -35.82193       -173.0277             -200               0             -200               0
1.92409                -1.374472        -36.7998        -35.53473       -176.5657             -200               0             -200               0
1.93069                -1.421739       -37.23112        -35.24462         179.857             -200               0             -200               0
1.93729                -1.470721       -37.66911        -34.95205        176.2377             -200               0             -200               0
1.94389                -1.521504       -38.11401         -34.6575        172.5744             -200               0             -200               0
1.9505                 -1.574176       -38.56601        -34.36144        168.8653             -200               0             -200               0
1.9571                 -1.628841       -39.02534        -34.06439        165.1089             -200               0             -200               0
1.9637                 -1.685608       -39.49218        -33.76684        161.3044             -200               0             -200               0
1.9703                 -1.744596       -39.96669         -33.4693        157.4511             -200               0             -200               0
1.9769                 -1.805936       -40.44899        -33.17227        153.5487             -200               0             -200               0
1.9835                 -1.869763       -40.93919        -32.87622        149.5972             -200               0             -200               0
1.9901                 -1.936225       -41.43734        -32.58161        145.5969             -200               0             -200               0
1.9967                  -2.00548       -41.94344        -32.28889        141.5484             -200               0             -200               0
2.0033                 -2.077691       -42.45743        -31.99846        137.4524             -200               0             -200               0
2.0099                 -2.153029       -42.97922        -31.71071        133.3099             -200               0             -200               0
2.0165                 -2.231678       -43.50861        -31.42601        129.1219             -200               0             -200               0
2.0231                 -2.313825       -44.04537        -31.14469        124.8897             -200               0             -200               0
2.0297                 -2.399662       -44.58919        -30.86707        120.6146             -200               0             -200               0
2.0363                 -2.489393       -45.13965        -30.59341         116.298             -200               0             -200               0
2.0429                 -2.583225       -45.69629        -30.32399        111.9414             -200               0             -200               0
2.0495                 -2.681367       -46.25855        -30.05903        107.5464             -200               0             -200               0
2.05611                -2.784041        -46.8258        -29.79874        103.1143             -200               0             -200               0
2.06271                -2.891465       -47.39729        -29.54331        98.64684             -200               0             -200               0
2.06931                -3.003868       -47.97221        -29.29292        94.14553             -200               0             -200               0
2.07591                -3.121479       -48.54962         -29.0477        89.61194             -200               0             -200               0
2.08251                -3.244533       -49.12856        -28.80779        85.04758             -200               0             -200               0
2.08911                -3.373268       -49.70788        -28.57331        80.45399             -200               0             -200               0
2.09571                -3.507927       -50.28639        -28.34436        75.83266             -200               0             -200               0
2.10231                -3.648754       -50.86279        -28.12102        71.18505             -200               0             -200               0
2.10891                -3.796002       -51.43564        -27.90337        66.51258             -200               0             -200               0
2.11551                -3.949926       -52.00342        -27.69148        61.81667             -200               0             -200               0
2.12211                -4.110786       -52.56449        -27.48539        57.09866             -200               0             -200               0
2.12871                -4.278849       -53.11708        -27.28516        52.35988             -200               0             -200               0
2.13531                -4.454389       -53.65927        -27.09081        47.60161             -200               0             -200               0
2.14191                -4.637686       -54.18902        -26.90239        42.82511             -200               0             -200               0
2.14851                 -4.82903       -54.70412        -26.71991         38.0316             -200               0             -200               0
2.15512                -5.028721       -55.20218        -26.54338        33.22223             -200               0             -200               0
2.16172                -5.237068       -55.68063        -26.37283        28.39816             -200               0             -200               0
2.16832                -5.454394       -56.13668        -26.20826         23.5605             -200               0             -200               0
2.17492                -5.681036       -56.56729        -26.04968        18.71032             -200               0             -200               0
2.18152                -5.917344       -56.96914        -25.89707        13.84867             -200               0             -200               0
2.18812                -6.163686       -57.33861        -25.75045        8.976555             -200               0             -200               0
2.19472                -6.420447       -57.67168         -25.6098        4.094975             -200               0             -200               0
2.20132                -6.688027       -57.96395        -25.47511      -0.7951127             -200               0             -200               0
2.20792                -6.966851       -58.21049        -25.34638       -5.692771             -200               0             -200               0
2.21452                -7.257356       -58.40581         -25.2236       -10.59708             -200               0             -200               0
2.22112                -7.559998       -58.54375        -25.10674       -15.50716             -200               0             -200               0
2.22772                -7.875247       -58.61736        -24.99579       -20.42213             -200               0             -200               0
2.23432                -8.203581       -58.61876        -24.89074       -25.34113             -200               0             -200               0
2.24092                -8.545475       -58.53899        -24.79157       -30.26333             -200               0             -200               0
2.24752                -8.901394       -58.36778        -24.69826        -35.1879             -200               0             -200               0
2.25413                -9.271774       -58.09339        -24.61078       -40.11403             -200               0             -200               0
2.26073                -9.656984       -57.70227        -24.52913       -45.04094             -200               0             -200               0
2.26733                 -10.0573       -57.17882        -24.45327       -49.96782             -200               0             -200               0
2.27393                -10.47284       -56.50499        -24.38319        -54.8939             -200               0             -200               0
2.28053                -10.90349       -55.65999        -24.31887       -59.81842             -200               0             -200               0
2.28713                -11.34879       -54.61986        -24.26027        -64.7406             -200               0             -200               0
2.29373                 -11.8078       -53.35719        -24.20738        -69.6597             -200               0             -200               0