! TOUCHSTONE file generated by CST MICROWAVE STUDIO
! Date and time: Sat Mar  8 13:55:33 2025
! Project name: non_fractured.cst
! Parameters = {B=2.5; D=160; F=20; Feed=2.85625; L=100; M=20; R=0.384908; S=1.5; Theta=180; length=57.125; wave=114.25}
! Header version: 2024
! Port assignment regex: !\s*Touchstone port\s*([0-9]+)\s*=\s*(CST MWS port|CST DES external port|CST DES block port)\s*(.+)\s* \(\"(.*)\"\)(\s*mode\s*([0-9]+))?.*
! Touchstone port assignment:
! Touchstone port 1 = CST MWS port 1 ("")
! Touchstone port 2 = CST MWS port 2 ("")
# GHz S DB R 50
1                    -0.01977275       -9.753219        -67.03548       -163.3443             -200               0             -200               0
1.00658              -0.02049152       -9.840428        -67.03578       -167.8165             -200               0             -200               0
1.01316              -0.02122683       -9.928139        -67.06249        -172.122             -200               0             -200               0
1.01974              -0.02197979       -10.01636        -67.11485       -176.2423             -200               0             -200               0
1.02632              -0.02274689        -10.1051        -67.19179        179.8437             -200               0             -200               0
1.03289              -0.02352699       -10.19438        -67.29183        176.1602             -200               0             -200               0
1.03947              -0.02431916       -10.28422        -67.41285        172.7342             -200               0             -200               0
1.04605              -0.02512193       -10.37464        -67.55195        169.5957             -200               0             -200               0
1.05263              -0.02593642       -10.46566         -67.7051        166.7768             -200               0             -200               0
1.05921              -0.02676001        -10.5573        -67.86687        164.3103             -200               0             -200               0
1.06579               -0.0275947       -10.64959        -68.03012        162.2278             -200               0             -200               0
1.07237              -0.02844045       -10.74255        -68.18567        160.5558             -200               0             -200               0
1.07895              -0.02929812       -10.83622        -68.32219        159.3102             -200               0             -200               0
1.08553              -0.03016915        -10.9306        -68.42643        158.4905             -200               0             -200               0
1.09211              -0.03105497       -11.02573        -68.48383        158.0722             -200               0             -200               0
1.09868              -0.03195972       -11.12164        -68.47988        158.0007             -200               0             -200               0
1.10526              -0.03288212       -11.21833        -68.40191        158.1903             -200               0             -200               0
1.11184              -0.03382952       -11.31584        -68.24118        158.5279             -200               0             -200               0
1.11842              -0.03480142       -11.41417        -67.99448        158.8845             -200               0             -200               0
1.125                 -0.0358019       -11.51336        -67.66477        159.1312             -200               0             -200               0
1.13158              -0.03683547        -11.6134        -67.26056        159.1554             -200               0             -200               0
1.13816              -0.03790426        -11.7143        -66.79424        158.8715             -200               0             -200               0
1.14474              -0.03901223       -11.81608        -66.28005        158.2258             -200               0             -200               0
1.15132              -0.04016073       -11.91875        -65.73222        157.1944             -200               0             -200               0
1.15789              -0.04135655       -12.02229        -65.16369        155.7773             -200               0             -200               0
1.16447              -0.04259902       -12.12671        -64.58544        153.9914             -200               0             -200               0
1.17105              -0.04389294       -12.23202        -64.00629        151.8639             -200               0             -200               0
1.17763               -0.0452393       -12.33821        -63.43301        149.4271             -200               0             -200               0
1.18421              -0.04663982       -12.44527        -62.87066        146.7151             -200               0             -200               0
1.19079               -0.0480967       -12.55319        -62.32282         143.761             -200               0             -200               0
1.19737              -0.04960951       -12.66199        -61.79199        140.5959             -200               0             -200               0
1.20395              -0.05117982       -12.77164        -61.27979        137.2485             -200               0             -200               0
1.21053              -0.05280792       -12.88215        -60.78722        133.7442             -200               0             -200               0
1.21711              -0.05449467       -12.99352         -60.3148        130.1061             -200               0             -200               0
1.22368              -0.05623526       -13.10574        -59.86271        126.3544             -200               0             -200               0
1.23026              -0.05803386       -13.21882        -59.43091        122.5072             -200               0             -200               0
1.23684              -0.05988538       -13.33276        -59.01917        118.5804             -200               0             -200               0
1.24342              -0.06178941       -13.44757        -58.62714        114.5883             -200               0             -200               0
1.25                 -0.06374443       -13.56327        -58.25442        110.5435             -200               0             -200               0
1.25658              -0.06574879       -13.67985        -57.90052        106.4575             -200               0             -200               0
1.26316              -0.06780042       -13.79736        -57.56494        102.3405             -200               0             -200               0
1.26974              -0.06989851        -13.9158        -57.24716          98.202             -200               0             -200               0
1.27632              -0.07204242       -14.03521        -56.94664        94.05056             -200               0             -200               0
1.28289              -0.07422977        -14.1556        -56.66282        89.89418             -200               0             -200               0
1.28947              -0.07645867       -14.27702        -56.39515        85.74031             -200               0             -200               0
1.29605              -0.07873179       -14.39949        -56.14307        81.59595             -200               0             -200               0
1.30263              -0.08104685       -14.52305        -55.90599        77.46776             -200               0             -200               0
1.30921              -0.08340425       -14.64774        -55.68332        73.36208             -200               0             -200               0
1.31579              -0.08580733        -14.7736        -55.47446          69.285             -200               0             -200               0
1.32237              -0.08825583       -14.90067        -55.27878        65.24241             -200               0             -200               0
1.32895              -0.09075195       -15.02898         -55.0956        61.24001             -200               0             -200               0
1.33553                -0.093298       -15.15859        -54.92423        57.28333             -200               0             -200               0
1.34211              -0.09589877       -15.28951        -54.76393        53.37775             -200               0             -200               0
1.34868              -0.09855776        -15.4218         -54.6139        49.52843             -200               0             -200               0
1.35526               -0.1012765       -15.55549        -54.47328         45.7404             -200               0             -200               0
1.36184               -0.1040625        -15.6906        -54.34116        42.01837             -200               0             -200               0
1.36842               -0.1069172       -15.82718        -54.21655        38.36681             -200               0             -200               0
1.375                 -0.1098477       -15.96524        -54.09837        34.78981             -200               0             -200               0
1.38158               -0.1128584       -16.10481        -53.98546        31.29099             -200               0             -200               0
1.38816               -0.1159525       -16.24592        -53.87659        27.87344             -200               0             -200               0
1.39474               -0.1191365       -16.38859        -53.77043        24.53953             -200               0             -200               0
1.40132               -0.1224142       -16.53282        -53.66558        21.29085             -200               0             -200               0
1.40789               -0.1257901       -16.67865        -53.56057        18.12803             -200               0             -200               0
1.41447               -0.1292679       -16.82607        -53.45387        15.05061             -200               0             -200               0
1.42105               -0.1328511       -16.97511        -53.34394        12.05689             -200               0             -200               0
1.42763               -0.1365422       -17.12577         -53.2292        9.143846             -200               0             -200               0
1.43421               -0.1403439       -17.27808        -53.10812        6.307057             -200               0             -200               0
1.44079               -0.1442597       -17.43204        -52.97925        3.540627             -200               0             -200               0
1.44737               -0.1482906       -17.58767        -52.84121       0.8372402             -200               0             -200               0
1.45395               -0.1524359       -17.74499        -52.69281       -1.811764             -200               0             -200               0
1.46053               -0.1566985       -17.90401        -52.53304       -4.416231             -200               0             -200               0
1.46711               -0.1610792       -18.06477         -52.3611       -6.986976             -200               0             -200               0
1.47368               -0.1655748       -18.22729        -52.17646       -9.535488             -200               0             -200               0
1.48026               -0.1701876       -18.39161        -51.97888       -12.07362             -200               0             -200               0
1.48684               -0.1749175       -18.55777        -51.76837        -14.6132             -200               0             -200               0
1.49342               -0.1797637       -18.72581        -51.54525       -17.16575             -200               0             -200               0
1.5                   -0.1847261       -18.89578        -51.31007       -19.74209             -200               0             -200               0
1.50658               -0.1898048       -19.06775         -51.0636       -22.35207             -200               0             -200               0
1.51316               -0.1950007       -19.24178        -50.80682       -25.00438             -200               0             -200               0
1.51974               -0.2003147       -19.41793        -50.54085       -27.70636             -200               0             -200               0
1.52632               -0.2057498       -19.59629        -50.26692       -30.46394             -200               0             -200               0
1.53289               -0.2113067       -19.77694        -49.98629       -33.28157             -200               0             -200               0
1.53947               -0.2169894       -19.95996        -49.70028       -36.16232             -200               0             -200               0
1.54605               -0.2228033       -20.14545        -49.41017       -39.10794             -200               0             -200               0
1.55263               -0.2287536       -20.33349        -49.11721       -42.11896             -200               0             -200               0
1.55921               -0.2348472       -20.52419        -48.82258       -45.19484             -200               0             -200               0
1.56579               -0.2410927       -20.71765        -48.52737       -48.33413             -200               0             -200               0
1.57237               -0.2474996       -20.91397        -48.23258       -51.53458             -200               0             -200               0
1.57895               -0.2540773       -21.11324        -47.93913       -54.79334             -200               0             -200               0
1.58553               -0.2608383       -21.31557        -47.64779       -58.10705             -200               0             -200               0
1.59211               -0.2677962       -21.52105        -47.35927       -61.47195             -200               0             -200               0
1.59868                -0.274964       -21.72979        -47.07417       -64.88402             -200               0             -200               0
1.60526               -0.2823591       -21.94186        -46.79296       -68.33905             -200               0             -200               0
1.61184               -0.2899961       -22.15737        -46.51605       -71.83272             -200               0             -200               0
1.61842               -0.2978932       -22.37639        -46.24375       -75.36068             -200               0             -200               0
1.625                 -0.3060684         -22.599        -45.97629       -78.91856             -200               0             -200               0
1.63158               -0.3145397       -22.82528        -45.71382       -82.50207             -200               0             -200               0
1.63816               -0.3233276        -23.0553        -45.45643       -86.10699             -200               0             -200               0
1.64474               -0.3324501       -23.28912        -45.20411       -89.72923             -200               0             -200               0
1.65132               -0.3419282       -23.52679        -44.95683       -93.36487             -200               0             -200               0
1.65789               -0.3517821       -23.76839        -44.71447       -97.01011             -200               0             -200               0
1.66447               -0.3620321       -24.01394        -44.47688       -100.6614             -200               0             -200               0
1.67105               -0.3726979       -24.26351        -44.24385       -104.3153             -200               0             -200               0
1.67763               -0.3838002       -24.51714        -44.01511       -107.9688             -200               0             -200               0
1.68421                -0.395359       -24.77487        -43.79036       -111.6189             -200               0             -200               0
1.69079               -0.4073927       -25.03674        -43.56927       -115.2629             -200               0             -200               0
1.69737               -0.4199226        -25.3028        -43.35146       -118.8987             -200               0             -200               0
1.70395               -0.4329678       -25.57309        -43.13651       -122.5239             -200               0             -200               0
1.71053               -0.4465469       -25.84765        -42.92399       -126.1371             -200               0             -200               0
1.71711               -0.4606799       -26.12653        -42.71343       -129.7366             -200               0             -200               0
1.72368               -0.4753865        -26.4098        -42.50434       -133.3216             -200               0             -200               0
1.73026                -0.490686       -26.69749        -42.29623       -136.8913             -200               0             -200               0
1.73684               -0.5065975       -26.98969        -42.08857       -140.4455             -200               0             -200               0
1.74342               -0.5231441       -27.28646        -41.88087       -143.9842             -200               0             -200               0
1.75                  -0.5403458       -27.58787        -41.67259        -147.508             -200               0             -200               0
1.75658               -0.5582248       -27.89401        -41.46325       -151.0177             -200               0             -200               0
1.76316               -0.5768045       -28.20497        -41.25236       -154.5147             -200               0             -200               0
1.76974                 -0.59611       -28.52085        -41.03944       -158.0008             -200               0             -200               0
1.77632                -0.616167       -28.84175        -40.82409       -161.4779             -200               0             -200               0
1.78289                -0.637006       -29.16778        -40.60589       -164.9484             -200               0             -200               0
1.78947               -0.6586563       -29.49906        -40.38452       -168.4152             -200               0             -200               0
1.79605                 -0.68115       -29.83572        -40.15967       -171.8813             -200               0             -200               0
1.80263               -0.7045233       -30.17786        -39.93112       -175.3497             -200               0             -200               0
1.80921               -0.7288145       -30.52564        -39.69868        -178.824             -200               0             -200               0
1.81579               -0.7540639       -30.87917        -39.46224        177.6923             -200               0             -200               0
1.82237               -0.7803152       -31.23858        -39.22177        174.1957             -200               0             -200               0
1.82895               -0.8076161       -31.60399        -38.97728        170.6826             -200               0             -200               0
1.83553               -0.8360178       -31.97554        -38.72885        167.1496             -200               0             -200               0
1.84211               -0.8655719       -32.35334        -38.47663        163.5931             -200               0             -200               0
1.84868               -0.8963378        -32.7375        -38.22082        160.0099             -200               0             -200               0
1.85526               -0.9283754       -33.12814        -37.96166        156.3972             -200               0             -200               0
1.86184                -0.961749       -33.52532        -37.69947         152.752             -200               0             -200               0
1.86842               -0.9965237       -33.92915        -37.43458        149.0719             -200               0             -200               0
1.875                  -1.032774       -34.33969        -37.16735        145.3546             -200               0             -200               0
1.88158                -1.070572       -34.75698        -36.89818        141.5984             -200               0             -200               0
1.88816                -1.109996       -35.18108        -36.62747        137.8014             -200               0             -200               0
1.89474                -1.151125       -35.61199        -36.35567        133.9627             -200               0             -200               0
1.90132                -1.194045       -36.04972        -36.08319         130.081             -200               0             -200               0
1.90789                -1.238841       -36.49424        -35.81047        126.1558             -200               0             -200               0
1.91447                -1.285603       -36.94552        -35.53792        122.1867             -200               0             -200               0
1.92105                -1.334426       -37.40349        -35.26598        118.1735             -200               0             -200               0
1.92763                -1.385401       -37.86807        -34.99503        114.1162             -200               0             -200               0
1.93421                -1.438629       -38.33914        -34.72547        110.0154             -200               0             -200               0
1.94079                -1.494211       -38.81659        -34.45768        105.8713             -200               0             -200               0
1.94737                -1.552249       -39.30024        -34.19199        101.6847             -200               0             -200               0
1.95395                -1.612849       -39.78992        -33.92875        97.45641             -200               0             -200               0
1.96053                 -1.67612       -40.28542        -33.66826        93.18732             -200               0             -200               0
1.96711                -1.742176        -40.7865        -33.41082        88.87849             -200               0             -200               0
1.97368                -1.811127       -41.29292        -33.15668        84.53104             -200               0             -200               0
1.98026                -1.883093       -41.80438         -32.9061        80.14615             -200               0             -200               0
1.98684                -1.958193       -42.32056        -32.65931        75.72506             -200               0             -200               0
1.99342                -2.036552       -42.84112         -32.4165        71.26906             -200               0             -200               0
2                      -2.118295       -43.36568        -32.17788        66.77945             -200               0             -200               0
2.00658                -2.203554       -43.89384        -31.94361        62.25756             -200               0             -200               0
2.01316                -2.292462       -44.42514        -31.71384        57.70472             -200               0             -200               0
2.01974                -2.385159       -44.95912        -31.48872        53.12226             -200               0             -200               0
2.02632                -2.481787       -45.49525        -31.26836        48.51152             -200               0             -200               0
2.03289                -2.582495       -46.03298        -31.05289        43.87379             -200               0             -200               0
2.03947                -2.687434        -46.5717        -30.84239         39.2104             -200               0             -200               0
2.04605                -2.796763       -47.11076        -30.63695         34.5226             -200               0             -200               0
2.05263                -2.910645       -47.64945        -30.43666        29.81168             -200               0             -200               0
2.05921                -3.029252       -48.18701        -30.24158        25.07884             -200               0             -200               0
2.06579                -3.152758       -48.72262        -30.05176        20.32531             -200               0             -200               0
2.07237                -3.281349       -49.25536        -29.86725        15.55226             -200               0             -200               0
2.07895                -3.415214       -49.78427         -29.6881        10.76084             -200               0             -200               0
2.08553                -3.554552       -50.30829        -29.51435        5.952189             -200               0             -200               0
2.09211                 -3.69957       -50.82627        -29.34601        1.127393             -200               0             -200               0
2.09868                -3.850481       -51.33695        -29.18313       -3.712471             -200               0             -200               0
2.10526                -4.007509       -51.83895        -29.02571       -8.566364             -200               0             -200               0
2.11184                -4.170887       -52.33078        -28.87377       -13.43327             -200               0             -200               0
2.11842                -4.340854       -52.81078        -28.72732       -18.31218             -200               0             -200               0
2.125                  -4.517663       -53.27717        -28.58638       -23.20214             -200               0             -200               0
2.13158                -4.701572       -53.72796        -28.45094        -28.1022             -200               0             -200               0
2.13816                 -4.89285       -54.16099          -28.321       -33.01144             -200               0             -200               0
2.14474                -5.091776       -54.57386        -28.19656       -37.92895             -200               0             -200               0
2.15132                -5.298634       -54.96395        -28.07763       -42.85384             -200               0             -200               0
2.15789                -5.513722       -55.32834        -27.96419       -47.78525             -200               0             -200               0
2.16447                -5.737339       -55.66382        -27.85624       -52.72233             -200               0             -200               0
2.17105                -5.969793       -55.96685        -27.75376       -57.66425             -200               0             -200               0
2.17763                -6.211396       -56.23347        -27.65675       -62.61018             -200               0             -200               0
2.18421                 -6.46246       -56.45934         -27.5652       -67.55931             -200               0             -200               0
2.19079                -6.723293       -56.63956        -27.47908       -72.51085             -200               0             -200               0
2.19737                -6.994198       -56.76875        -27.39839       -77.46402             -200               0             -200               0
2.20395                -7.275462       -56.84086         -27.3231       -82.41804             -200               0             -200               0
2.21053                -7.567354       -56.84919        -27.25321       -87.37214             -200               0             -200               0
2.21711                -7.870104       -56.78622        -27.18868       -92.32555             -200               0             -200               0
2.22368                  -8.1839       -56.64356         -27.1295       -97.27752             -200               0             -200               0
2.23026                -8.508862       -56.41184        -27.07566       -102.2273             -200               0             -200               0
2.23684                -8.845018        -56.0806        -27.02712       -107.1742             -200               0             -200               0
2.24342                -9.192281       -55.63815        -26.98386       -112.1173             -200               0             -200               0
2.25                   -9.550395       -55.07153        -26.94586       -117.0561             -200               0             -200               0
2.25658                  -9.9189       -54.36634        -26.91309       -121.9896             -200               0             -200               0
2.26316                -10.29706       -53.50676        -26.88553       -126.9173             -200               0             -200               0
2.26974                -10.68378        -52.4755        -26.86313       -131.8383             -200               0             -200               0
2.27632                -11.07753       -51.25395        -26.84588       -136.7519             -200               0             -200               0
2.28289                 -11.4762       -49.82248        -26.83374       -141.6573             -200               0             -200               0
2.28947                -11.87702       -48.16086        -26.82667       -146.5538             -200               0             -200               0