! TOUCHSTONE file generated by CST MICROWAVE STUDIO
! Date and time: Sat Mar  8 13:55:38 2025
! Project name: non_fractured.cst
! Parameters = {B=2.5; D=160; F=25; Feed=2.85625; L=100; M=20; R=0.384908; S=1; Theta=180; length=57.125; wave=114.25}
! Header version: 2024
! Port assignment regex: !\s*Touchstone port\s*([0-9]+)\s*=\s*(CST MWS port|CST DES external port|CST DES block port)\s*(.+)\s* \(\"(.*)\"\)(\s*mode\s*([0-9]+))?.*
! Touchstone port assignment:
! Touchstone port 1 = CST MWS port 1 ("")
! Touchstone port 2 = CST MWS port 2 ("")
# GHz S DB R 50
1                    -0.02097107        -9.75191        -64.90291       -172.7078             -200               0             -200               0
1.0066               -0.02160619        -9.83804        -64.99643       -178.2287             -200               0             -200               0
1.0132               -0.02222057       -9.924782        -65.12748        176.4004             -200               0             -200               0
1.0198               -0.02281925       -10.01219        -65.29783        171.1973             -200               0             -200               0
1.0264               -0.02340145       -10.10031        -65.50942        166.1848             -200               0             -200               0
1.033                -0.02397278       -10.18919        -65.76444        161.3923             -200               0             -200               0
1.0396               -0.02453736       -10.27888        -66.06519        156.8571             -200               0             -200               0
1.0462               -0.02510034       -10.36941        -66.41393        152.6277             -200               0             -200               0
1.05281              -0.02566761       -10.46081        -66.81265        148.7664             -200               0             -200               0
1.05941              -0.02624774       -10.55313        -67.26249        145.3539             -200               0             -200               0
1.06601              -0.02684373       -10.64637        -67.76282        142.4939             -200               0             -200               0
1.07261              -0.02746666       -10.74055        -68.30961        140.3192             -200               0             -200               0
1.07921              -0.02812202       -10.83568        -68.89264        138.9938             -200               0             -200               0
1.08581              -0.02881865       -10.93177         -69.4912        138.7093             -200               0             -200               0
1.09241               -0.0295613        -11.0288         -70.0682        139.6597             -200               0             -200               0
1.09901              -0.03035879       -11.12676        -70.56466        141.9795             -200               0             -200               0
1.10561              -0.03121529       -11.22563        -70.90055        145.6315             -200               0             -200               0
1.11221              -0.03213879       -11.32539        -70.99133        150.2827             -200               0             -200               0
1.11881              -0.03312963       -11.42602        -70.78214        155.2856             -200               0             -200               0
1.12541              -0.03419403       -11.52747        -70.27797        159.8683             -200               0             -200               0
1.13201              -0.03533415       -11.62972        -69.54065        163.4257             -200               0             -200               0
1.13861              -0.03654893       -11.73272        -68.65569        165.6769             -200               0             -200               0
1.14521              -0.03784109       -11.83646        -67.70021        166.6212             -200               0             -200               0
1.15182              -0.03920865       -11.94089        -66.72933        166.4091             -200               0             -200               0
1.15842               -0.0406484       -12.04598         -65.7769         165.238             -200               0             -200               0
1.16502              -0.04215918       -12.15171        -64.86141        163.2969             -200               0             -200               0
1.17162              -0.04373453       -12.25805        -63.99161        160.7461             -200               0             -200               0
1.17822              -0.04537274         -12.365         -63.1706        157.7146             -200               0             -200               0
1.18482              -0.04706437       -12.47254        -62.39836        154.3038             -200               0             -200               0
1.19142              -0.04880682       -12.58067        -61.67329        150.5929             -200               0             -200               0
1.19802              -0.05059213       -12.68939        -60.99305        146.6436             -200               0             -200               0
1.20462              -0.05241549       -12.79874        -60.35501        142.5045             -200               0             -200               0
1.21122              -0.05427046       -12.90871        -59.75655        138.2141             -200               0             -200               0
1.21782              -0.05614959       -13.01936        -59.19517        133.8033             -200               0             -200               0
1.22442              -0.05804939       -13.13071        -58.66855        129.2972             -200               0             -200               0
1.23102              -0.05996614       -13.24282        -58.17455        124.7162             -200               0             -200               0
1.23762              -0.06189261       -13.35572        -57.71125        120.0775             -200               0             -200               0
1.24422              -0.06383026       -13.46949        -57.27691        115.3955             -200               0             -200               0
1.25083              -0.06577396       -13.58418        -56.86996        110.6825             -200               0             -200               0
1.25743              -0.06772562       -13.69986        -56.48899        105.9493             -200               0             -200               0
1.26403              -0.06968599       -13.81659        -56.13272        101.2052             -200               0             -200               0
1.27063              -0.07165575       -13.93443        -55.80002        96.45875             -200               0             -200               0
1.27723              -0.07364032       -14.05347        -55.48981        91.71758             -200               0             -200               0
1.28383              -0.07564298       -14.17375        -55.20116         86.9888             -200               0             -200               0
1.29043                 -0.07767       -14.29533        -54.93317        82.27909             -200               0             -200               0
1.29703              -0.07972898       -14.41827        -54.68502         77.5948             -200               0             -200               0
1.30363              -0.08182538       -14.54262        -54.45594        72.94208             -200               0             -200               0
1.31023              -0.08396999       -14.66842        -54.24519        68.32696             -200               0             -200               0
1.31683              -0.08617206       -14.79571        -54.05206         63.7554             -200               0             -200               0
1.32343              -0.08843858        -14.9245        -53.87584        59.23336             -200               0             -200               0
1.33003              -0.09077985       -15.05481        -53.71582        54.76686             -200               0             -200               0
1.33663              -0.09320696       -15.18666         -53.5713          50.362             -200               0             -200               0
1.34323              -0.09572698       -15.32005        -53.44151        46.02498             -200               0             -200               0
1.34984              -0.09834994       -15.45497        -53.32566        41.76213             -200               0             -200               0
1.35644               -0.1010822       -15.59141         -53.2229        37.57989             -200               0             -200               0
1.36304               -0.1039312       -15.72934        -53.13228        33.48479             -200               0             -200               0
1.36964               -0.1069041       -15.86875        -53.05277         29.4834             -200               0             -200               0
1.37624               -0.1100023       -16.00961        -52.98323        25.58229             -200               0             -200               0
1.38284                -0.113232       -16.15188        -52.92236        21.78786             -200               0             -200               0
1.38944               -0.1165941       -16.29555        -52.86873        18.10628             -200               0             -200               0
1.39604               -0.1200892       -16.44057        -52.82073        14.54324             -200               0             -200               0
1.40264               -0.1237164       -16.58693        -52.77658         11.1038             -200               0             -200               0
1.40924               -0.1274737       -16.73459        -52.73428        7.792001             -200               0             -200               0
1.41584               -0.1313574       -16.88355        -52.69169        4.610677             -200               0             -200               0
1.42244               -0.1353631        -17.0338        -52.64647        1.561014             -200               0             -200               0
1.42904               -0.1394856       -17.18533        -52.59613       -1.357786             -200               0             -200               0
1.43564               -0.1437191       -17.33816         -52.5381       -4.148869             -200               0             -200               0
1.44224               -0.1480575        -17.4923        -52.46975       -6.818049             -200               0             -200               0
1.44884               -0.1524922       -17.64778        -52.38853       -9.374038             -200               0             -200               0
1.45545               -0.1570173       -17.80465        -52.29199       -11.82855             -200               0             -200               0
1.46205               -0.1616263       -17.96296        -52.17798        -14.1962             -200               0             -200               0
1.46865               -0.1663125       -18.12278        -52.04466       -16.49428             -200               0             -200               0
1.47525                -0.171071       -18.28418        -51.89066       -18.74219             -200               0             -200               0
1.48185               -0.1758968       -18.44725        -51.71517       -20.96082             -200               0             -200               0
1.48845               -0.1807873       -18.61208        -51.51792       -23.17168             -200               0             -200               0
1.49505               -0.1857412       -18.77879        -51.29924       -25.39607             -200               0             -200               0
1.50165               -0.1907589       -18.94749        -51.06001       -27.65419             -200               0             -200               0
1.50825               -0.1958408       -19.11829        -50.80162       -29.96436             -200               0             -200               0
1.51485               -0.2009916       -19.29132        -50.52585       -32.34247             -200               0             -200               0
1.52145               -0.2062176        -19.4667        -50.23478       -34.80159             -200               0             -200               0
1.52805                -0.211526       -19.64455        -49.93068       -37.35173             -200               0             -200               0
1.53465               -0.2169265         -19.825        -49.61591       -39.99999             -200               0             -200               0
1.54125               -0.2224304       -20.00817        -49.29281       -42.75059             -200               0             -200               0
1.54785               -0.2280524       -20.19417        -48.96365       -45.60524             -200               0             -200               0
1.55446                -0.233806       -20.38311        -48.63056       -48.56345             -200               0             -200               0
1.56106               -0.2397087        -20.5751        -48.29551       -51.62294             -200               0             -200               0
1.56766               -0.2457785       -20.77022        -47.96024       -54.77996             -200               0             -200               0
1.57426               -0.2520336       -20.96855        -47.62631       -58.02965             -200               0             -200               0
1.58086               -0.2584942       -21.17018        -47.29507       -61.36636             -200               0             -200               0
1.58746               -0.2651798       -21.37515        -46.96767       -64.78388             -200               0             -200               0
1.59406               -0.2721102       -21.58352        -46.64507       -68.27566             -200               0             -200               0
1.60066                -0.279306       -21.79532        -46.32806       -71.83498             -200               0             -200               0
1.60726                -0.286787        -22.0106        -46.01727       -75.45509             -200               0             -200               0
1.61386               -0.2945721       -22.22937        -45.71319        -79.1293             -200               0             -200               0
1.62046               -0.3026797       -22.45165         -45.4162       -82.85105             -200               0             -200               0
1.62706               -0.3111269       -22.67745        -45.12655       -86.61398             -200               0             -200               0
1.63366               -0.3199305       -22.90676        -44.84439       -90.41194             -200               0             -200               0
1.64026               -0.3291052        -23.1396        -44.56979       -94.23904             -200               0             -200               0
1.64686               -0.3386643       -23.37597        -44.30275       -98.08965             -200               0             -200               0
1.65347               -0.3486206       -23.61587        -44.04317       -101.9584             -200               0             -200               0
1.66007               -0.3589843        -23.8593         -43.7909       -105.8402             -200               0             -200               0
1.66667               -0.3697667       -24.10628        -43.54575       -109.7303             -200               0             -200               0
1.67327               -0.3809766       -24.35684        -43.30745       -113.6242             -200               0             -200               0
1.67987               -0.3926226         -24.611        -43.07569       -117.5175             -200               0             -200               0
1.68647               -0.4047091        -24.8688        -42.85012       -121.4064             -200               0             -200               0
1.69307               -0.4172462       -25.13029        -42.63033       -125.2873             -200               0             -200               0
1.69967               -0.4302407       -25.39555        -42.41589       -129.1567             -200               0             -200               0
1.70627               -0.4436996       -25.66465        -42.20631       -133.0118             -200               0             -200               0
1.71287                -0.457631        -25.9377        -42.00108       -136.8497             -200               0             -200               0
1.71947               -0.4720441       -26.21479        -41.79965       -140.6682             -200               0             -200               0
1.72607               -0.4869494       -26.49607        -41.60145       -144.4654             -200               0             -200               0
1.73267               -0.5023607       -26.78166        -41.40586       -148.2396             -200               0             -200               0
1.73927               -0.5182906       -27.07173        -41.21227       -151.9898             -200               0             -200               0
1.74587               -0.5347591       -27.36644        -41.02003       -155.7152             -200               0             -200               0
1.75248               -0.5517848       -27.66597        -40.82848       -159.4156             -200               0             -200               0
1.75908               -0.5693901       -27.97049        -40.63698       -163.0912             -200               0             -200               0
1.76568               -0.5876034       -28.28021        -40.44487       -166.7427             -200               0             -200               0
1.77228                -0.606454       -28.59532        -40.25151       -170.3714             -200               0             -200               0
1.77888                -0.625976       -28.91603        -40.05628       -173.9789             -200               0             -200               0
1.78548               -0.6462068       -29.24251         -39.8586       -177.5674             -200               0             -200               0
1.79208                 -0.66719       -29.57498        -39.65791        178.8603             -200               0             -200               0
1.79868               -0.6889698       -29.91362        -39.45371        175.3014             -200               0             -200               0
1.80528               -0.7115957       -30.25861        -39.24558        171.7521             -200               0             -200               0
1.81188               -0.7351217       -30.61011        -39.03313        168.2089             -200               0             -200               0
1.81848                -0.759604        -30.9683        -38.81607        164.6675             -200               0             -200               0
1.82508               -0.7851024        -31.3333        -38.59417        161.1237             -200               0             -200               0
1.83168               -0.8116813       -31.70525         -38.3673        157.5729             -200               0             -200               0
1.83828               -0.8394066       -32.08426        -38.13541        154.0109             -200               0             -200               0
1.84488               -0.8683468       -32.47041        -37.89853         150.433             -200               0             -200               0
1.85149               -0.8985742       -32.86377        -37.65676        146.8348             -200               0             -200               0
1.85809               -0.9301619        -33.2644         -37.4103        143.2123             -200               0             -200               0
1.86469               -0.9631857       -33.67232        -37.15941        139.5614             -200               0             -200               0
1.87129               -0.9977217       -34.08755        -36.90441        135.8785             -200               0             -200               0
1.87789                 -1.03385       -34.51007        -36.64567        132.1602             -200               0             -200               0
1.88449                -1.071649       -34.93986        -36.38362        128.4035             -200               0             -200               0
1.89109                -1.111202       -35.37687        -36.11872        124.6059             -200               0             -200               0
1.89769                -1.152588       -35.82103        -35.85146        120.7652             -200               0             -200               0
1.90429                -1.195891       -36.27228        -35.58234        116.8796             -200               0             -200               0
1.91089                -1.241197       -36.73052        -35.31187        112.9478             -200               0             -200               0
1.91749                -1.288589       -37.19564        -35.04058        108.9687             -200               0             -200               0
1.92409                -1.338154       -37.66752        -34.76897        104.9418             -200               0             -200               0
1.93069                 -1.38998       -38.14606        -34.49754        100.8666             -200               0             -200               0
1.93729                -1.444156       -38.63109        -34.22678        96.74327             -200               0             -200               0
1.94389                -1.500775       -39.12249        -33.95715        92.57199             -200               0             -200               0
1.9505                  -1.55993        -39.6201         -33.6891        88.35332             -200               0             -200               0
1.9571                 -1.621717       -40.12377        -33.42304        84.08795             -200               0             -200               0
1.9637                 -1.686236       -40.63332        -33.15936        79.77681             -200               0             -200               0
1.9703                 -1.753592       -41.14859        -32.89844        75.42095             -200               0             -200               0
1.9769                 -1.823891       -41.66938        -32.64061        71.02154             -200               0             -200               0
1.9835                 -1.897249        -42.1955        -32.38618        66.57988             -200               0             -200               0
1.9901                 -1.973781       -42.72674        -32.13544        62.09732             -200               0             -200               0
1.9967                 -2.053612       -43.26289        -31.88864        57.57528             -200               0             -200               0
2.0033                 -2.136873       -43.80369        -31.64604        53.01523             -200               0             -200               0
2.0099                 -2.223704       -44.34888        -31.40783        48.41866             -200               0             -200               0
2.0165                 -2.314249       -44.89817        -31.17421        43.78708             -200               0             -200               0
2.0231                 -2.408661       -45.45121        -30.94536        39.12198             -200               0             -200               0
2.0297                 -2.507107       -46.00767        -30.72142        34.42487             -200               0             -200               0
2.0363                 -2.609758       -46.56711        -30.50254        29.69725             -200               0             -200               0
2.0429                 -2.716795       -47.12908        -30.28884        24.94058             -200               0             -200               0
2.0495                 -2.828413       -47.69306        -30.08042         20.1563             -200               0             -200               0
2.05611                -2.944816       -48.25846        -29.87737        15.34582             -200               0             -200               0
2.06271                -3.066219        -48.8246        -29.67978        10.51055             -200               0             -200               0
2.06931                -3.192849       -49.39075        -29.48772        5.651815             -200               0             -200               0
2.07591                -3.324943       -49.95604        -29.30124       0.7709431             -200               0             -200               0
2.08251                -3.462755       -50.51953         -29.1204       -4.130786             -200               0             -200               0
2.08911                -3.606546       -51.08012        -28.94525       -9.052128             -200               0             -200               0
2.09571                 -3.75659       -51.63661        -28.77581       -13.99187             -200               0             -200               0
2.10231                 -3.91318       -52.18763        -28.61211       -18.94884             -200               0             -200               0
2.10891                -4.076613       -52.73166        -28.45419        -23.9219             -200               0             -200               0
2.11551                -4.247205       -53.26698        -28.30207       -28.90994             -200               0             -200               0
2.12211                -4.425282       -53.79169        -28.15575       -33.91187             -200               0             -200               0
2.12871                -4.611183       -54.30365        -28.01524       -38.92668             -200               0             -200               0
2.13531                -4.805261       -54.80048        -27.88056       -43.95332             -200               0             -200               0
2.14191                -5.007877       -55.27952        -27.75171       -48.99081             -200               0             -200               0
2.14851                -5.219408       -55.73782        -27.62869        -54.0382             -200               0             -200               0
2.15512                 -5.44024       -56.17206         -27.5115       -59.09454             -200               0             -200               0
2.16172                -5.670766       -56.57858        -27.40014       -64.15893             -200               0             -200               0
2.16832                 -5.91139       -56.95328         -27.2946       -69.23047             -200               0             -200               0
2.17492                -6.162521       -57.29154        -27.19488       -74.30828             -200               0             -200               0
2.18152                -6.424568       -57.58829        -27.10096       -79.39151             -200               0             -200               0
2.18812                -6.697941       -57.83777        -27.01285       -84.47933             -200               0             -200               0
2.19472                -6.983041       -58.03359        -26.93053       -89.57089             -200               0             -200               0
2.20132                -7.280255       -58.16856          -26.854       -94.66541             -200               0             -200               0
2.20792                -7.589944       -58.23463        -26.78323       -99.76207             -200               0             -200               0
2.21452                -7.912428       -58.22273        -26.71823       -104.8601             -200               0             -200               0
2.22112                -8.247974        -58.1227        -26.65897       -109.9587             -200               0             -200               0
2.22772                -8.596764        -57.9231        -26.60544        -115.057             -200               0             -200               0
2.23432                -8.958867       -57.61104        -26.55764       -120.1545             -200               0             -200               0
2.24092                -9.334197        -57.1721        -26.51554       -125.2501             -200               0             -200               0
2.24752                -9.722459       -56.59011        -26.47914       -130.3433             -200               0             -200               0
2.25413                -10.12308       -55.84702        -26.44841       -135.4332             -200               0             -200               0
2.26073                 -10.5351        -54.9229        -26.42335       -140.5191             -200               0             -200               0
2.26733                -10.95709       -53.79587        -26.40393       -145.6002             -200               0             -200               0
2.27393                -11.38699       -52.44238        -26.39013       -150.6758             -200               0             -200               0
2.28053                -11.82196       -50.83764        -26.38195        -155.745             -200               0             -200               0
2.28713                -12.25816       -48.95644        -26.37936       -160.8072             -200               0             -200               0
2.29373                -12.69059       -46.77461        -26.38234       -165.8614             -200               0             -200               0