! TOUCHSTONE file generated by CST MICROWAVE STUDIO
! Date and time: Sat Mar  8 13:54:46 2025
! Project name: non_fractured.cst
! Parameters = {B=2.5; D=160; F=15; Feed=2.85625; L=100; M=10; R=0.384908; S=1.5; Theta=90; length=57.125; wave=114.25}
! Header version: 2024
! Port assignment regex: !\s*Touchstone port\s*([0-9]+)\s*=\s*(CST MWS port|CST DES external port|CST DES block port)\s*(.+)\s* \(\"(.*)\"\)(\s*mode\s*([0-9]+))?.*
! Touchstone port assignment:
! Touchstone port 1 = CST MWS port 1 ("")
! Touchstone port 2 = CST MWS port 2 ("")
# GHz S DB R 50
1                    -0.01724716       -9.751857         -70.1165       -131.1324             -200               0             -200               0
1.00662              -0.01807464       -9.841919        -69.68743       -134.6838             -200               0             -200               0
1.01325              -0.01897626       -9.932308        -69.28955       -138.3146             -200               0             -200               0
1.01987              -0.01994529       -10.02298        -68.92184       -142.0011             -200               0             -200               0
1.02649              -0.02097171       -10.11388        -68.58322       -145.7224             -200               0             -200               0
1.03311              -0.02204678       -10.20499        -68.27262       -149.4597             -200               0             -200               0
1.03974              -0.02316026       -10.29629        -67.98893       -153.1958             -200               0             -200               0
1.04636              -0.02430122       -10.38777        -67.73106       -156.9146             -200               0             -200               0
1.05298              -0.02545609       -10.47945        -67.49788       -160.6009             -200               0             -200               0
1.0596               -0.02661677       -10.57133        -67.28825       -164.2403             -200               0             -200               0
1.06623              -0.02776934       -10.66348        -67.10095       -167.8186             -200               0             -200               0
1.07285              -0.02890593       -10.75592        -66.93469       -171.3218             -200               0             -200               0
1.07947              -0.03001718       -10.84872        -66.78806       -174.7362             -200               0             -200               0
1.08609              -0.03109536       -10.94196         -66.6595        -178.048             -200               0             -200               0
1.09272              -0.03213521        -11.0357        -66.54723        178.7562             -200               0             -200               0
1.09934              -0.03313161       -11.13004        -66.44927        175.6898             -200               0             -200               0
1.10596              -0.03408392       -11.22508         -66.3633        172.7658             -200               0             -200               0
1.11258              -0.03499202       -11.32089        -66.28671         169.996             -200               0             -200               0
1.11921              -0.03585714       -11.41758        -66.21647        167.3915             -200               0             -200               0
1.12583               -0.0366853       -11.51523        -66.14918         164.961             -200               0             -200               0
1.13245              -0.03748157       -11.61394        -66.08103        162.7109             -200               0             -200               0
1.13907              -0.03825477       -11.71378        -66.00782         160.644             -200               0             -200               0
1.1457               -0.03901555       -11.81482        -65.92508        158.7584             -200               0             -200               0
1.15232              -0.03977437       -11.91713        -65.82814        157.0471             -200               0             -200               0
1.15894              -0.04054404       -12.02075        -65.71237        155.4969             -200               0             -200               0
1.16556              -0.04133835       -12.12572        -65.57338        154.0881             -200               0             -200               0
1.17219              -0.04217043       -12.23206        -65.40733        152.7945             -200               0             -200               0
1.17881              -0.04305599       -12.33978        -65.21118        151.5847             -200               0             -200               0
1.18543              -0.04400657       -12.44886        -64.98294        150.4229             -200               0             -200               0
1.19205              -0.04503615        -12.5593         -64.7218        149.2713             -200               0             -200               0
1.19868              -0.04615757       -12.67105        -64.42826        148.0922             -200               0             -200               0
1.2053               -0.04738013       -12.78407        -64.10397          146.85             -200               0             -200               0
1.21192              -0.04871379        -12.8983        -63.75161        145.5137             -200               0             -200               0
1.21854              -0.05016629       -13.01369        -63.37462        144.0576             -200               0             -200               0
1.22517              -0.05174251       -13.13016        -62.97695        142.4627             -200               0             -200               0
1.23179              -0.05344549       -13.24765        -62.56275        140.7159             -200               0             -200               0
1.23841              -0.05527654       -13.36607        -62.13613        138.8105             -200               0             -200               0
1.24503              -0.05723413       -13.48536        -61.70103        136.7445             -200               0             -200               0
1.25166              -0.05931375       -13.60545        -61.26102        134.5206             -200               0             -200               0
1.25828              -0.06151183       -13.72628        -60.81929        132.1445             -200               0             -200               0
1.2649               -0.06381875        -13.8478        -60.37857        129.6244             -200               0             -200               0
1.27152              -0.06622656       -13.96995        -59.94118          126.97             -200               0             -200               0
1.27815              -0.06872418       -14.09273        -59.50903         124.192             -200               0             -200               0
1.28477              -0.07130006        -14.2161        -59.08362        121.3016             -200               0             -200               0
1.29139              -0.07394187       -14.34009        -58.66617          118.31             -200               0             -200               0
1.29801              -0.07663687       -14.46469        -58.25757        115.2283             -200               0             -200               0
1.30464              -0.07937144       -14.58994        -57.85848        112.0671             -200               0             -200               0
1.31126               -0.0821355       -14.71589        -57.46933        108.8366             -200               0             -200               0
1.31788              -0.08491618       -14.84262        -57.09041        105.5466             -200               0             -200               0
1.3245               -0.08770374       -14.97019         -56.7218        102.2059             -200               0             -200               0
1.33113              -0.09049071       -15.09871        -56.36351        98.82308             -200               0             -200               0
1.33775              -0.09327001       -15.22827        -56.01541         95.4059             -200               0             -200               0
1.34437              -0.09603734       -15.35899        -55.67728        91.96162             -200               0             -200               0
1.35099              -0.09879151       -15.49099        -55.34883         88.4969             -200               0             -200               0
1.35762               -0.1015326        -15.6244        -55.02972        85.01787             -200               0             -200               0
1.36424                -0.104264       -15.75933        -54.71954        81.53012             -200               0             -200               0
1.37086                -0.106992       -15.89592        -54.41781        78.03875             -200               0             -200               0
1.37748                -0.109725       -16.03429        -54.12405        74.54833             -200               0             -200               0
1.38411               -0.1124736       -16.17454        -53.83772        71.06298             -200               0             -200               0
1.39073               -0.1152505       -16.31679        -53.55825        67.58632             -200               0             -200               0
1.39735               -0.1180714       -16.46111        -53.28506        64.12153             -200               0             -200               0
1.40397               -0.1209522        -16.6076        -53.01752        60.67128             -200               0             -200               0
1.4106                 -0.123911       -16.75632        -52.75501        57.23781             -200               0             -200               0
1.41722               -0.1269667       -16.90733         -52.4969        53.82288             -200               0             -200               0
1.42384               -0.1301376       -17.06064        -52.24253        50.42778             -200               0             -200               0
1.43046               -0.1334427       -17.21627        -51.99127        47.05334             -200               0             -200               0
1.43709               -0.1369015       -17.37423        -51.74248        43.69993             -200               0             -200               0
1.44371               -0.1405298        -17.5345        -51.49553        40.36745             -200               0             -200               0
1.45033               -0.1443457       -17.69705        -51.24982        37.05536             -200               0             -200               0
1.45695               -0.1483627       -17.86184        -51.00477        33.76271             -200               0             -200               0
1.46358               -0.1525942       -18.02882        -50.75984        30.48811             -200               0             -200               0
1.4702                -0.1570507       -18.19792        -50.51453         27.2298             -200               0             -200               0
1.47682               -0.1617399       -18.36908        -50.26838        23.98569             -200               0             -200               0
1.48344               -0.1666672       -18.54223        -50.02098        20.75338             -200               0             -200               0
1.49007               -0.1718364       -18.71731        -49.77201        17.53021             -200               0             -200               0
1.49669               -0.1772481       -18.89425        -49.52116        14.31333             -200               0             -200               0
1.50331               -0.1829002       -19.07301        -49.26823        11.09975             -200               0             -200               0
1.50993               -0.1887876       -19.25352        -49.01307        7.886392             -200               0             -200               0
1.51656               -0.1949059       -19.43577        -48.75558        4.670158             -200               0             -200               0
1.52318               -0.2012455       -19.61972        -48.49575        1.447992             -200               0             -200               0
1.5298                -0.2077986       -19.80539        -48.23363       -1.783068             -200               0             -200               0
1.53642               -0.2145557       -19.99279         -47.9693       -5.025831             -200               0             -200               0
1.54305               -0.2215048       -20.18195        -47.70292       -8.282916             -200               0             -200               0
1.54967               -0.2286366       -20.37294        -47.43469        -11.5567             -200               0             -200               0
1.55629               -0.2359415       -20.56584        -47.16485       -14.84931             -200               0             -200               0
1.56291               -0.2434111       -20.76073        -46.89367       -18.16255             -200               0             -200               0
1.56954               -0.2510387       -20.95774        -46.62144       -21.49795             -200               0             -200               0
1.57616               -0.2588191         -21.157        -46.34848       -24.85671             -200               0             -200               0
1.58278               -0.2667503       -21.35867        -46.07511       -28.23972             -200               0             -200               0
1.5894                -0.2748319        -21.5629        -45.80167       -31.64755             -200               0             -200               0
1.59603               -0.2830698       -21.76988        -45.52847       -35.08048             -200               0             -200               0
1.60265               -0.2914691       -21.97978        -45.25583       -38.53852             -200               0             -200               0
1.60927               -0.3000419       -22.19278        -44.98408        -42.0214             -200               0             -200               0
1.61589               -0.3088028       -22.40908        -44.71348       -45.52861             -200               0             -200               0
1.62252               -0.3177688       -22.62884        -44.44433       -49.05943             -200               0             -200               0
1.62914               -0.3269625       -22.85226        -44.17686       -52.61296             -200               0             -200               0
1.63576               -0.3364074       -23.07948        -43.91129       -56.18812             -200               0             -200               0
1.64238               -0.3461343       -23.31067        -43.64783       -59.78369             -200               0             -200               0
1.64901               -0.3561715       -23.54595        -43.38664       -63.39835             -200               0             -200               0
1.65563               -0.3665521       -23.78545        -43.12786       -67.03067             -200               0             -200               0
1.66225               -0.3773119       -24.02925         -42.8716       -70.67919             -200               0             -200               0
1.66887               -0.3884865       -24.27744        -42.61794       -74.34237             -200               0             -200               0
1.6755                -0.4001142       -24.53007        -42.36693       -78.01865             -200               0             -200               0
1.68212               -0.4122286       -24.78717        -42.11859       -81.70651             -200               0             -200               0
1.68874                -0.424869       -25.04874        -41.87293       -85.40439             -200               0             -200               0
1.69536                -0.438071       -25.31478        -41.62991       -89.11081             -200               0             -200               0
1.70199               -0.4518687       -25.58525        -41.38947       -92.82432             -200               0             -200               0
1.70861               -0.4662948       -25.86011        -41.15154       -96.54354             -200               0             -200               0
1.71523               -0.4813793        -26.1393          -40.916       -100.2672             -200               0             -200               0
1.72185                 -0.49715       -26.42274        -40.68275        -103.994             -200               0             -200               0
1.72848               -0.5136327       -26.71037        -40.45162        -107.723             -200               0             -200               0
1.7351                -0.5308486        -27.0021        -40.22246       -111.4532             -200               0             -200               0
1.74172               -0.5488182       -27.29784        -39.99509       -115.1837             -200               0             -200               0
1.74834               -0.5675559       -27.59754        -39.76932       -118.9138             -200               0             -200               0
1.75497               -0.5870771       -27.90111        -39.54495        -122.643             -200               0             -200               0
1.76159               -0.6073909       -28.20852        -39.32176       -126.3709             -200               0             -200               0
1.76821               -0.6285083       -28.51974        -39.09954       -130.0973             -200               0             -200               0
1.77483                -0.650434       -28.83473        -38.87807       -133.8222             -200               0             -200               0
1.78146               -0.6731764       -29.15353        -38.65712       -137.5456             -200               0             -200               0
1.78808               -0.6967411       -29.47617        -38.43647       -141.2679             -200               0             -200               0
1.7947                -0.7211333       -29.80272        -38.21591       -144.9895             -200               0             -200               0
1.80132               -0.7463601       -30.13326        -37.99522        -148.711             -200               0             -200               0
1.80795               -0.7724308       -30.46794        -37.77422       -152.4333             -200               0             -200               0
1.81457                -0.799357       -30.80689        -37.55272       -156.1572             -200               0             -200               0
1.82119               -0.8271535        -31.1503        -37.33054        -159.884             -200               0             -200               0
1.82781               -0.8558394       -31.49839        -37.10754       -163.6147             -200               0             -200               0
1.83444               -0.8854387       -31.85137        -36.88359       -167.3508             -200               0             -200               0
1.84106               -0.9159823       -32.20952        -36.65858       -171.0936             -200               0             -200               0
1.84768                -0.947505       -32.57308        -36.43243       -174.8446             -200               0             -200               0
1.8543                -0.9800502       -32.94234        -36.20508       -178.6055             -200               0             -200               0
1.86093                -1.013669       -33.31759        -35.97649        177.6222             -200               0             -200               0
1.86755                 -1.04842       -33.69909        -35.74667        173.8367             -200               0             -200               0
1.87417                -1.084369       -34.08715        -35.51562        170.0365             -200               0             -200               0
1.88079                 -1.12159         -34.482         -35.2834          166.22             -200               0             -200               0
1.88742                -1.160164       -34.88391        -35.05008        162.3856             -200               0             -200               0
1.89404                -1.200183       -35.29309        -34.81575        158.5316             -200               0             -200               0
1.90066                -1.241743       -35.70972        -34.58052        154.6568             -200               0             -200               0
1.90728                 -1.28495       -36.13396        -34.34454        150.7596             -200               0             -200               0
1.91391                -1.329915       -36.56592        -34.10797        146.8389             -200               0             -200               0
1.92053                -1.376755       -37.00566        -33.87097        142.8934             -200               0             -200               0
1.92715                -1.425592       -37.45319        -33.63372        138.9221             -200               0             -200               0
1.93377                -1.476554       -37.90846        -33.39644        134.9241             -200               0             -200               0
1.9404                 -1.529774       -38.37137        -33.15933        130.8985             -200               0             -200               0
1.94702                -1.585385       -38.84177         -32.9226        126.8448             -200               0             -200               0
1.95364                -1.643522       -39.31942        -32.68647        122.7623             -200               0             -200               0
1.96026                -1.704325       -39.80406        -32.45118        118.6506             -200               0             -200               0
1.96689                -1.767931       -40.29534        -32.21694        114.5094             -200               0             -200               0
1.97351                 -1.83448       -40.79284        -31.98397        110.3386             -200               0             -200               0
1.98013                -1.904108       -41.29611        -31.75251         106.138             -200               0             -200               0
1.98675                -1.976952       -41.80463        -31.52277        101.9078             -200               0             -200               0
1.99338                -2.053144       -42.31783        -31.29496          97.648             -200               0             -200               0
2                      -2.132817        -42.8351        -31.06929         93.3589             -200               0             -200               0
2.00662                -2.216098       -43.35576        -30.84597         89.0408             -200               0             -200               0
2.01325                -2.303112        -43.8791        -30.62518        84.69409             -200               0             -200               0
2.01987                -2.393981       -44.40439        -30.40711        80.31925             -200               0             -200               0
2.02649                -2.488823       -44.93083        -30.19194        75.91678             -200               0             -200               0
2.03311                -2.587755       -45.45762        -29.97983        71.48729             -200               0             -200               0
2.03974                -2.690886       -45.98391        -29.77096        67.03138             -200               0             -200               0
2.04636                -2.798328       -46.50887        -29.56546        62.54974             -200               0             -200               0
2.05298                -2.910188       -47.03161        -29.36348        58.04307             -200               0             -200               0
2.0596                 -3.026573       -47.55121        -29.16516         53.5121             -200               0             -200               0
2.06623                -3.147588       -48.06681        -28.97061         48.9576             -200               0             -200               0
2.07285                -3.273339       -48.57746        -28.77996        44.38034             -200               0             -200               0
2.07947                -3.403934       -49.08225         -28.5933        39.78112             -200               0             -200               0
2.08609                -3.539485       -49.58023        -28.41076        35.16075             -200               0             -200               0
2.09272                -3.680105       -50.07045         -28.2324        30.52005             -200               0             -200               0
2.09934                -3.825914       -50.55195        -28.05834        25.85983             -200               0             -200               0
2.10596                 -3.97704       -51.02373        -27.88863        21.18092             -200               0             -200               0
2.11258                 -4.13362       -51.48476        -27.72336        16.48414             -200               0             -200               0
2.11921                -4.295798       -51.93401        -27.56258        11.77032             -200               0             -200               0
2.12583                -4.463736       -52.37038        -27.40638        7.040279             -200               0             -200               0
2.13245                -4.637603        -52.7927        -27.25479        2.294829             -200               0             -200               0
2.13907                -4.817591       -53.19976        -27.10787        -2.46522             -200               0             -200               0
2.1457                 -5.003905       -53.59022        -26.96567       -7.239066             -200               0             -200               0
2.15232                -5.196772       -53.96264        -26.82823       -12.02591             -200               0             -200               0
2.15894                -5.396438       -54.31546        -26.69559       -16.82498             -200               0             -200               0
2.16556                -5.603174       -54.64694        -26.56777       -21.63547             -200               0             -200               0
2.17219                -5.817276       -54.95513        -26.44482       -26.45664             -200               0             -200               0
2.17881                -6.039064       -55.23784        -26.32676        -31.2877             -200               0             -200               0
2.18543                -6.268889       -55.49262        -26.21361       -36.12792             -200               0             -200               0
2.19205                -6.507125       -55.71666         -26.1054       -40.97655             -200               0             -200               0
2.19868                -6.754176       -55.90675        -26.00214       -45.83285             -200               0             -200               0
2.2053                 -7.010476       -56.05925        -25.90385       -50.69608             -200               0             -200               0
2.21192                -7.276483       -56.16995        -25.81055       -55.56555             -200               0             -200               0
2.21854                -7.552682       -56.23404        -25.72224       -60.44052             -200               0             -200               0
2.22517                -7.839576       -56.24596        -25.63894       -65.32029             -200               0             -200               0
2.23179                -8.137685       -56.19929        -25.56066       -70.20416             -200               0             -200               0
2.23841                -8.447539       -56.08663         -25.4874       -75.09144             -200               0             -200               0
2.24503                -8.769656       -55.89944        -25.41917       -79.98143             -200               0             -200               0
2.25166                -9.104543       -55.62783        -25.35596       -84.87346             -200               0             -200               0
2.25828                -9.452652       -55.26034        -25.29779       -89.76683             -200               0             -200               0
2.2649                 -9.814367       -54.78375        -25.24466       -94.66088             -200               0             -200               0
2.27152                -10.18995       -54.18282        -25.19655       -99.55492             -200               0             -200               0
2.27815                -10.57947       -53.43989        -25.15348       -104.4483             -200               0             -200               0
2.28477                -10.98275       -52.53475        -25.11543       -109.3403             -200               0             -200               0
2.29139                -11.39924       -51.44429         -25.0824       -114.2303             -200               0             -200               0
2.29801                -11.82785       -50.14229        -25.05439       -119.1175             -200               0             -200               0