! TOUCHSTONE file generated by CST MICROWAVE STUDIO
! Date and time: Sat Mar  8 13:54:14 2025
! Project name: non_fractured.cst
! Parameters = {B=2.5; D=160; F=15; Feed=2.85625; L=100; M=5; R=0.384908; S=2.5; Theta=180; length=57.125; wave=114.25}
! Header version: 2024
! Port assignment regex: !\s*Touchstone port\s*([0-9]+)\s*=\s*(CST MWS port|CST DES external port|CST DES block port)\s*(.+)\s* \(\"(.*)\"\)(\s*mode\s*([0-9]+))?.*
! Touchstone port assignment:
! Touchstone port 1 = CST MWS port 1 ("")
! Touchstone port 2 = CST MWS port 2 ("")
# GHz S DB R 50
1                    -0.01870072       -9.742774        -68.09768       -123.2682             -200               0             -200               0
1.00658              -0.01935772       -9.830767        -67.56678         -127.49             -200               0             -200               0
1.01316              -0.02005958       -9.919291        -67.07523       -131.8075             -200               0             -200               0
1.01974               -0.0208045       -10.00832        -66.62072       -136.1976             -200               0             -200               0
1.02632              -0.02159276       -10.09784        -66.20122       -140.6406             -200               0             -200               0
1.03289               -0.0224198       -10.18783         -65.8149       -145.1201             -200               0             -200               0
1.03947              -0.02328302       -10.27827        -65.46013       -149.6217             -200               0             -200               0
1.04605               -0.0241788       -10.36916        -65.13549       -154.1329             -200               0             -200               0
1.05263              -0.02510269       -10.46049        -64.83969       -158.6422             -200               0             -200               0
1.05921              -0.02605121       -10.55227        -64.57159       -163.1391             -200               0             -200               0
1.06579              -0.02701866       -10.64449        -64.33018       -167.6139             -200               0             -200               0
1.07237              -0.02800064       -10.73718        -64.11453        -172.057             -200               0             -200               0
1.07895              -0.02899208       -10.83036        -63.92381       -176.4592             -200               0             -200               0
1.08553              -0.02998923       -10.92404        -63.75722        179.1887             -200               0             -200               0
1.09211              -0.03098819       -11.01826        -63.61402        174.8962             -200               0             -200               0
1.09868              -0.03198485       -11.11306        -63.49349        170.6728             -200               0             -200               0
1.10526              -0.03297706       -11.20847        -63.39488        166.5286             -200               0             -200               0
1.11184              -0.03396196       -11.30455        -63.31742        162.4741             -200               0             -200               0
1.11842              -0.03493971       -11.40133        -63.26028        158.5204             -200               0             -200               0
1.125                -0.03590923       -11.49888         -63.2225        154.6793             -200               0             -200               0
1.13158               -0.0368716       -11.59723        -63.20301        150.9632             -200               0             -200               0
1.13816              -0.03782827       -11.69645        -63.20052        147.3852             -200               0             -200               0
1.14474              -0.03878235       -11.79658        -63.21349        143.9591             -200               0             -200               0
1.15132              -0.03973792       -11.89767        -63.24008        140.6992             -200               0             -200               0
1.15789              -0.04069808       -11.99977        -63.27806        137.6199             -200               0             -200               0
1.16447              -0.04166975       -12.10291        -63.32473        134.7355             -200               0             -200               0
1.17105              -0.04265888       -12.20715        -63.37686        132.0594             -200               0             -200               0
1.17763              -0.04367155        -12.3125        -63.43066        129.6031             -200               0             -200               0
1.18421              -0.04471521       -12.41899         -63.4817        127.3758             -200               0             -200               0
1.19079               -0.0457978       -12.52664        -63.52494        125.3821             -200               0             -200               0
1.19737              -0.04692707       -12.63547        -63.55485        123.6211             -200               0             -200               0
1.20395              -0.04810904       -12.74548         -63.5655        122.0848             -200               0             -200               0
1.21053              -0.04935273       -12.85667        -63.55093        120.7566             -200               0             -200               0
1.21711              -0.05066453       -12.96904        -63.50542        119.6108             -200               0             -200               0
1.22368              -0.05204993       -13.08256        -63.42399        118.6121             -200               0             -200               0
1.23026              -0.05351562       -13.19723        -63.30282        117.7175             -200               0             -200               0
1.23684              -0.05506692       -13.31302        -63.13962        116.8782             -200               0             -200               0
1.24342              -0.05670658       -13.42991        -62.93391         116.043             -200               0             -200               0
1.25                 -0.05843853       -13.54786        -62.68701        115.1617             -200               0             -200               0
1.25658              -0.06026422       -13.66686         -62.4019        114.1887             -200               0             -200               0
1.26316              -0.06218399       -13.78687        -62.08286        113.0861             -200               0             -200               0
1.26974              -0.06419862       -13.90787        -61.73506        111.8246             -200               0             -200               0
1.27632              -0.06630624       -14.02982        -61.36412        110.3843             -200               0             -200               0
1.28289              -0.06850435       -14.15272        -60.97566        108.7545             -200               0             -200               0
1.28947              -0.07079071       -14.27654        -60.57505        106.9321             -200               0             -200               0
1.29605              -0.07316079       -14.40128        -60.16715        104.9203             -200               0             -200               0
1.30263               -0.0756089       -14.52693        -59.75623        102.7269             -200               0             -200               0
1.30921               -0.0781319        -14.6535        -59.34592        100.3631             -200               0             -200               0
1.31579              -0.08072376       -14.78099        -58.93921        97.84238             -200               0             -200               0
1.32237              -0.08337778       -14.90943        -58.53853        95.17905             -200               0             -200               0
1.32895              -0.08608991       -15.03885        -58.14577        92.38802             -200               0             -200               0
1.33553              -0.08885515       -15.16928        -57.76236        89.48406             -200               0             -200               0
1.34211              -0.09166815       -15.30076        -57.38937        86.48154             -200               0             -200               0
1.34868              -0.09452524       -15.43336        -57.02754        83.39418             -200               0             -200               0
1.35526              -0.09742308       -15.56712        -56.67733        80.23496             -200               0             -200               0
1.36184               -0.1003601       -15.70212        -56.33899        77.01601             -200               0             -200               0
1.36842               -0.1033344       -15.83842        -56.01256        73.74869             -200               0             -200               0
1.375                 -0.1063459        -15.9761        -55.69796         70.4435             -200               0             -200               0
1.38158               -0.1093977       -16.11524        -55.39495        67.11018             -200               0             -200               0
1.38816               -0.1124904        -16.2559         -55.1032        63.75773             -200               0             -200               0
1.39474               -0.1156303       -16.39818        -54.82228        60.39441             -200               0             -200               0
1.40132               -0.1188199       -16.54213        -54.55166        57.02783             -200               0             -200               0
1.40789               -0.1220691       -16.68786        -54.29075        53.66494             -200               0             -200               0
1.41447               -0.1253839       -16.83541        -54.03891        50.31205             -200               0             -200               0
1.42105               -0.1287737       -16.98485        -53.79541        46.97486             -200               0             -200               0
1.42763               -0.1322479       -17.13625        -53.55948        43.65843             -200               0             -200               0
1.43421               -0.1358166       -17.28966         -53.3303        40.36721             -200               0             -200               0
1.44079               -0.1394919       -17.44512          -53.107        37.10499             -200               0             -200               0
1.44737               -0.1432842       -17.60267        -52.88869        33.87491             -200               0             -200               0
1.45395               -0.1472053       -17.76234        -52.67443        30.67942             -200               0             -200               0
1.46053               -0.1512674       -17.92415        -52.46325        27.52025             -200               0             -200               0
1.46711               -0.1554804       -18.08813        -52.25418         24.3984             -200               0             -200               0
1.47368               -0.1598556       -18.25427        -52.04626        21.31409             -200               0             -200               0
1.48026               -0.1644037       -18.42259        -51.83851        18.26679             -200               0             -200               0
1.48684               -0.1691332       -18.59309        -51.62999        15.25516             -200               0             -200               0
1.49342               -0.1740526       -18.76575        -51.41979         12.2771             -200               0             -200               0
1.5                   -0.1791695       -18.94057        -51.20708         9.32976             -200               0             -200               0
1.50658               -0.1844897       -19.11755        -50.99106        6.409574             -200               0             -200               0
1.51316               -0.1900196       -19.29667        -50.77106        3.512357             -200               0             -200               0
1.51974               -0.1957617       -19.47794        -50.54648       0.6333597             -200               0             -200               0
1.52632               -0.2017202       -19.66135        -50.31685       -2.232614             -200               0             -200               0
1.53289               -0.2078975       -19.84691         -50.0818       -5.091091             -200               0             -200               0
1.53947               -0.2142947       -20.03462        -49.84112       -7.947798             -200               0             -200               0
1.54605                -0.220912       -20.22451         -49.5947       -10.80852             -200               0             -200               0
1.55263               -0.2277513       -20.41661        -49.34258       -13.67899             -200               0             -200               0
1.55921                -0.234811       -20.61094        -49.08491        -16.5647             -200               0             -200               0
1.56579               -0.2420925       -20.80756        -48.82195       -19.47085             -200               0             -200               0
1.57237               -0.2495955       -21.00653        -48.55408        -22.4022             -200               0             -200               0
1.57895               -0.2573218       -21.20791        -48.28175       -25.36299             -200               0             -200               0
1.58553               -0.2652727       -21.41178        -48.00548       -28.35692             -200               0             -200               0
1.59211               -0.2734524       -21.61823        -47.72586       -31.38703             -200               0             -200               0
1.59868               -0.2818642       -21.82735         -47.4435       -34.45576             -200               0             -200               0
1.60526               -0.2905132       -22.03925        -47.15904       -37.56489             -200               0             -200               0
1.61184               -0.2994089       -22.25404        -46.87313        -40.7156             -200               0             -200               0
1.61842               -0.3085617       -22.47184        -46.58642       -43.90846             -200               0             -200               0
1.625                 -0.3179814       -22.69276        -46.29952       -47.14352             -200               0             -200               0
1.63158               -0.3276831       -22.91693        -46.01304       -50.42032             -200               0             -200               0
1.63816               -0.3376829       -23.14446        -45.72753       -53.73793             -200               0             -200               0
1.64474               -0.3480004       -23.37547        -45.44352       -57.09507             -200               0             -200               0
1.65132               -0.3586557       -23.61006         -45.1615        -60.4901             -200               0             -200               0
1.65789               -0.3696708       -23.84836        -44.88187       -63.92109             -200               0             -200               0
1.66447               -0.3810712       -24.09044        -44.60504       -67.38591             -200               0             -200               0
1.67105                -0.392884        -24.3364        -44.33132       -70.88222             -200               0             -200               0
1.67763               -0.4051362       -24.58631        -44.06099       -74.40755             -200               0             -200               0
1.68421               -0.4178589       -24.84022         -43.7943       -77.95932             -200               0             -200               0
1.69079               -0.4310805       -25.09819        -43.53141       -81.53491             -200               0             -200               0
1.69737               -0.4448321       -25.36025        -43.27246       -85.13165             -200               0             -200               0
1.70395               -0.4591455       -25.62641        -43.01754       -88.74687             -200               0             -200               0
1.71053                -0.474051       -25.89668         -42.7667       -92.37793             -200               0             -200               0
1.71711               -0.4895787       -26.17104        -42.51993       -96.02222             -200               0             -200               0
1.72368               -0.5057612       -26.44947        -42.27721       -99.67722             -200               0             -200               0
1.73026               -0.5226231       -26.73194        -42.03846       -103.3405             -200               0             -200               0
1.73684               -0.5401943       -27.01839        -41.80357       -107.0097             -200               0             -200               0
1.74342               -0.5585005       -27.30878         -41.5724       -110.6825             -200               0             -200               0
1.75                   -0.577565       -27.60303        -41.34478        -114.357             -200               0             -200               0
1.75658               -0.5974107        -27.9011         -41.1205       -118.0312             -200               0             -200               0
1.76316               -0.6180567       -28.20291        -40.89933       -121.7033             -200               0             -200               0
1.76974               -0.6395218       -28.50841        -40.68102       -125.3718             -200               0             -200               0
1.77632                -0.661821       -28.81753         -40.4653       -129.0352             -200               0             -200               0
1.78289               -0.6849701       -29.13023        -40.25186       -132.6923             -200               0             -200               0
1.78947                 -0.70898       -29.44647        -40.04039       -136.3423             -200               0             -200               0
1.79605               -0.7338642       -29.76623        -39.83057       -139.9843             -200               0             -200               0
1.80263               -0.7596308        -30.0895        -39.62206       -143.6179             -200               0             -200               0
1.80921               -0.7862905       -30.41629        -39.41452       -147.2428             -200               0             -200               0
1.81579               -0.8138523       -30.74662        -39.20759        -150.859             -200               0             -200               0
1.82237               -0.8423251       -31.08056        -39.00094       -154.4668             -200               0             -200               0
1.82895               -0.8717207       -31.41819        -38.79422       -158.0667             -200               0             -200               0
1.83553               -0.9020505       -31.75959         -38.5871       -161.6595             -200               0             -200               0
1.84211                -0.933329        -32.1049        -38.37926       -165.2461             -200               0             -200               0
1.84868               -0.9655737       -32.45426        -38.17041       -168.8279             -200               0             -200               0
1.85526               -0.9988042       -32.80784        -37.96026       -172.4063             -200               0             -200               0
1.86184                -1.033044       -33.16583        -37.74857        -175.983             -200               0             -200               0
1.86842                -1.068323       -33.52845        -37.53511       -179.5599             -200               0             -200               0
1.875                  -1.104676        -33.8959         -37.3197         176.861             -200               0             -200               0
1.88158                -1.142141       -34.26844        -37.10218        173.2775             -200               0             -200               0
1.88816                -1.180766        -34.6463        -36.88245        169.6873             -200               0             -200               0
1.89474                -1.220602       -35.02974        -36.66042        166.0881             -200               0             -200               0
1.90132                -1.261709         -35.419        -36.43607        162.4774             -200               0             -200               0
1.90789                -1.304153       -35.81433        -36.20939         158.853             -200               0             -200               0
1.91447                 -1.34801       -36.21596        -35.98045        155.2123             -200               0             -200               0
1.92105                -1.393359       -36.62413        -35.74932        151.5532             -200               0             -200               0
1.92763                 -1.44029       -37.03902        -35.51612        147.8734             -200               0             -200               0
1.93421                -1.488897       -37.46081        -35.28102        144.1707             -200               0             -200               0
1.94079                -1.539285       -37.88965        -35.04419        140.4432             -200               0             -200               0
1.94737                -1.591564       -38.32567        -34.80585         136.689             -200               0             -200               0
1.95395                -1.645849       -38.76892        -34.56624        132.9066             -200               0             -200               0
1.96053                -1.702262       -39.21944        -34.32562        129.0945             -200               0             -200               0
1.96711                -1.760932       -39.67723        -34.08426        125.2513             -200               0             -200               0
1.97368                -1.821992       -40.14221        -33.84244         121.376             -200               0             -200               0
1.98026                -1.885578       -40.61428        -33.60047        117.4677             -200               0             -200               0
1.98684                -1.951834       -41.09326        -33.35863        113.5258             -200               0             -200               0
1.99342                -2.020903       -41.57893        -33.11724        109.5496             -200               0             -200               0
2                      -2.092934       -42.07101        -32.87659        105.5389             -200               0             -200               0
2.00658                -2.168078       -42.56917        -32.63698        101.4935             -200               0             -200               0
2.01316                -2.246487         -43.073         -32.3987        97.41344             -200               0             -200               0
2.01974                -2.328315       -43.58206        -32.16203        93.29881             -200               0             -200               0
2.02632                -2.413718       -44.09583        -31.92725        89.14989             -200               0             -200               0
2.03289                -2.502849       -44.61375        -31.69462         84.9671             -200               0             -200               0
2.03947                -2.595868        -45.1352        -31.46439        80.75094             -200               0             -200               0
2.04605                -2.692929       -45.65951        -31.23679          76.502             -200               0             -200               0
2.05263                 -2.79419       -46.18594        -31.01207        72.22096             -200               0             -200               0
2.05921                -2.899808       -46.71371        -30.79042         67.9086             -200               0             -200               0
2.06579                 -3.00994         -47.242        -30.57204        63.56572             -200               0             -200               0
2.07237                -3.124746       -47.76992        -30.35713         59.1932             -200               0             -200               0
2.07895                -3.244382       -48.29656        -30.14585        54.79195             -200               0             -200               0
2.08553                 -3.36901       -48.82092        -29.93837         50.3629             -200               0             -200               0
2.09211                -3.498792       -49.34198        -29.73483        45.90704             -200               0             -200               0
2.09868                -3.633891       -49.85867        -29.53538        41.42536             -200               0             -200               0
2.10526                -3.774476       -50.36986        -29.34013        36.91885             -200               0             -200               0
2.11184                -3.920717       -50.87437        -29.14919        32.38853             -200               0             -200               0
2.11842                -4.072793       -51.37095        -28.96268        27.83542             -200               0             -200               0
2.125                  -4.230884       -51.85832        -28.78069        23.26053             -200               0             -200               0
2.13158                -4.395181       -52.33508        -28.60331        18.66488             -200               0             -200               0
2.13816                -4.565883        -52.7998        -28.43061        14.04946             -200               0             -200               0
2.14474                  -4.7432       -53.25093        -28.26266        9.415274             -200               0             -200               0
2.15132                 -4.92735       -53.68682        -28.09952         4.76331             -200               0             -200               0
2.15789                -5.118569       -54.10573        -27.94126      0.09453569             -200               0             -200               0
2.16447                -5.317101       -54.50576        -27.78791       -4.590091             -200               0             -200               0
2.17105                -5.523215       -54.88486        -27.63953       -9.289621             -200               0             -200               0
2.17763                 -5.73719       -55.24079        -27.49615       -14.00313             -200               0             -200               0
2.18421                -5.959331        -55.5711        -27.35781        -18.7297             -200               0             -200               0
2.19079                -6.189958       -55.87309        -27.22453       -23.46844             -200               0             -200               0
2.19737                -6.429422       -56.14378        -27.09634       -28.21846             -200               0             -200               0
2.20395                 -6.67809       -56.37981        -26.97326       -32.97889             -200               0             -200               0
2.21053                -6.936356       -56.57745         -26.8553       -37.74889             -200               0             -200               0
2.21711                -7.204641       -56.73247        -26.74249       -42.52761             -200               0             -200               0
2.22368                -7.483388       -56.84011        -26.63483       -47.31424             -200               0             -200               0
2.23026                -7.773064       -56.89493        -26.53234       -52.10796             -200               0             -200               0
2.23684                -8.074152       -56.89075        -26.43501       -56.90798             -200               0             -200               0
2.24342                -8.387154       -56.82046        -26.34286       -61.71351             -200               0             -200               0
2.25                   -8.712574       -56.67592        -26.25588       -66.52378             -200               0             -200               0
2.25658                -9.050911       -56.44774        -26.17408       -71.33803             -200               0             -200               0
2.26316                -9.402637        -56.1251        -26.09744        -76.1555             -200               0             -200               0
2.26974                -9.768174       -55.69544        -26.02598       -80.97546             -200               0             -200               0
2.27632                -10.14785       -55.14426        -25.95968       -85.79716             -200               0             -200               0
2.28289                -10.54187        -54.4548        -25.89854       -90.61989             -200               0             -200               0
2.28947                -10.95021       -53.60762        -25.84255       -95.44292             -200               0             -200               0