! TOUCHSTONE file generated by CST MICROWAVE STUDIO
! Date and time: Sat Mar  8 13:55:34 2025
! Project name: non_fractured.cst
! Parameters = {B=2.5; D=160; F=20; Feed=2.85625; L=100; M=20; R=0.384908; S=2; Theta=0; length=57.125; wave=114.25}
! Header version: 2024
! Port assignment regex: !\s*Touchstone port\s*([0-9]+)\s*=\s*(CST MWS port|CST DES external port|CST DES block port)\s*(.+)\s* \(\"(.*)\"\)(\s*mode\s*([0-9]+))?.*
! Touchstone port assignment:
! Touchstone port 1 = CST MWS port 1 ("")
! Touchstone port 2 = CST MWS port 2 ("")
# GHz S DB R 50
1                    -0.01940836       -9.759099        -67.34037       -164.5235             -200               0             -200               0
1.0066               -0.02017947       -9.847106        -67.31604       -168.7994             -200               0             -200               0
1.0132               -0.02098124       -9.935565        -67.31453       -172.9149             -200               0             -200               0
1.0198               -0.02180932       -10.02447         -67.3346       -176.8538             -200               0             -200               0
1.0264               -0.02266284       -10.11383        -67.37467        179.4018             -200               0             -200               0
1.033                -0.02353657       -10.20364        -67.43276        175.8715             -200               0             -200               0
1.0396               -0.02442887       -10.29392        -67.50629        172.5762             -200               0             -200               0
1.0462               -0.02533526       -10.38469        -67.59198        169.5377             -200               0             -200               0
1.05281               -0.0262513       -10.47596        -67.68565         166.778             -200               0             -200               0
1.05941              -0.02717797       -10.56776        -67.78207        164.3173             -200               0             -200               0
1.06601              -0.02810993       -10.66012        -67.87483        162.1727             -200               0             -200               0
1.07261                -0.029048       -10.75306        -67.95628        160.3547             -200               0             -200               0
1.07921              -0.02998817       -10.84663        -68.01765        158.8647             -200               0             -200               0
1.08581              -0.03093269       -10.94084        -68.04932        157.6905             -200               0             -200               0
1.09241              -0.03188053       -11.03576        -68.04143        156.8037             -200               0             -200               0
1.09901              -0.03283271        -11.1314        -67.98471        156.1576             -200               0             -200               0
1.10561              -0.03379078       -11.22781        -67.87152        155.6877             -200               0             -200               0
1.11221              -0.03475685       -11.32502        -67.69684        155.3154             -200               0             -200               0
1.11881              -0.03573508       -11.42307        -67.45903        154.9545             -200               0             -200               0
1.12541               -0.0367271       -11.52198        -67.16003        154.5194             -200               0             -200               0
1.13201              -0.03773832       -11.62179        -66.80506        153.9337             -200               0             -200               0
1.13861              -0.03877313       -11.72253        -66.40181        153.1359             -200               0             -200               0
1.14521              -0.03983657        -11.8242        -65.95939        152.0824             -200               0             -200               0
1.15182               -0.0409328       -11.92683        -65.48739        150.7481             -200               0             -200               0
1.15842              -0.04206867       -12.03043          -64.995        149.1238             -200               0             -200               0
1.16502              -0.04324598         -12.135        -64.49049        147.2131             -200               0             -200               0
1.17162              -0.04447347       -12.24055        -63.98096        145.0285             -200               0             -200               0
1.17822              -0.04575431       -12.34708        -63.47227        142.5884             -200               0             -200               0
1.18482              -0.04709266       -12.45457        -62.96907        139.9144             -200               0             -200               0
1.19142              -0.04849195       -12.56303        -62.47498        137.0294             -200               0             -200               0
1.19802              -0.04995567       -12.67244        -61.99272        133.9562             -200               0             -200               0
1.20462               -0.0514868       -12.78278        -61.52429        130.7166             -200               0             -200               0
1.21122              -0.05308733       -12.89405        -61.07109        127.3314             -200               0             -200               0
1.21782              -0.05475778       -13.00621        -60.63409        123.8195             -200               0             -200               0
1.22442              -0.05649853       -13.11927        -60.21388        120.1984             -200               0             -200               0
1.23102              -0.05831061        -13.2332         -59.8108         116.484             -200               0             -200               0
1.23762               -0.0601917       -13.34799        -59.42498        112.6908             -200               0             -200               0
1.24422              -0.06214042       -13.46364         -59.0564        108.8317             -200               0             -200               0
1.25083              -0.06415545       -13.58014         -58.7049        104.9189             -200               0             -200               0
1.25743              -0.06623238       -13.69748        -58.37027         100.963             -200               0             -200               0
1.26403              -0.06837055       -13.81568         -58.0522        96.97412             -200               0             -200               0
1.27063              -0.07056471       -13.93473        -57.75037        92.96143             -200               0             -200               0
1.27723              -0.07281161       -14.05466        -57.46437        88.93345             -200               0             -200               0
1.28383              -0.07510717       -14.17547         -57.1938        84.89812             -200               0             -200               0
1.29043              -0.07745025       -14.29721        -56.93823         80.8629             -200               0             -200               0
1.29703              -0.07983515       -14.41989        -56.69718        76.83486             -200               0             -200               0
1.30363              -0.08226199       -14.54356        -56.47016        72.82071             -200               0             -200               0
1.31023              -0.08472567       -14.66825        -56.25665        68.82688             -200               0             -200               0
1.31683              -0.08722679       -14.79402         -56.0561        64.85954             -200               0             -200               0
1.32343              -0.08976297        -14.9209        -55.86794        60.92467             -200               0             -200               0
1.33003              -0.09233403       -15.04895        -55.69154        57.02802             -200               0             -200               0
1.33663              -0.09494328       -15.17822        -55.52623        53.17522             -200               0             -200               0
1.34323              -0.09758861       -15.30876         -55.3713        49.37164             -200               0             -200               0
1.34984               -0.1002753       -15.44063        -55.22598        45.62252             -200               0             -200               0
1.35644               -0.1030043       -15.57389        -55.08943        41.93282             -200               0             -200               0
1.36304               -0.1057809       -15.70857        -54.96075        38.30727             -200               0             -200               0
1.36964               -0.1086099       -15.84474        -54.83895        34.75027             -200               0             -200               0
1.37624               -0.1114951       -15.98244        -54.72298        31.26579             -200               0             -200               0
1.38284               -0.1144443       -16.12171        -54.61168        27.85737             -200               0             -200               0
1.38944               -0.1174613       -16.26258        -54.50384         24.5279             -200               0             -200               0
1.39604               -0.1205555        -16.4051        -54.39814        21.27959             -200               0             -200               0
1.40264                -0.123731        -16.5493         -54.2932        18.11381             -200               0             -200               0
1.40924               -0.1269952       -16.69519        -54.18758        15.03096             -200               0             -200               0
1.41584               -0.1303543        -16.8428        -54.07979        12.03032             -200               0             -200               0
1.42244               -0.1338138       -16.99214        -53.96831        9.109974             -200               0             -200               0
1.42904               -0.1373812       -17.14323        -53.85162        6.266663             -200               0             -200               0
1.43564               -0.1410613       -17.29608        -53.72827        3.495756             -200               0             -200               0
1.44224               -0.1448567       -17.45071        -53.59684       0.7912181             -200               0             -200               0
1.44884               -0.1487727       -17.60711        -53.45605       -1.854347             -200               0             -200               0
1.45545               -0.1528114       -17.76529        -53.30478       -4.449605             -200               0             -200               0
1.46205               -0.1569768       -17.92527        -53.14209       -7.004314             -200               0             -200               0
1.46865               -0.1612692       -18.08706        -52.96728         -9.5291             -200               0             -200               0
1.47525               -0.1656906       -18.25067        -52.77989       -12.03517             -200               0             -200               0
1.48185               -0.1702399       -18.41611        -52.57973       -14.53401             -200               0             -200               0
1.48845               -0.1749172       -18.58343        -52.36689       -17.03701             -200               0             -200               0
1.49505               -0.1797215       -18.75264        -52.14171       -19.55518             -200               0             -200               0
1.50165               -0.1846517       -18.92379        -51.90477       -22.09881             -200               0             -200               0
1.50825               -0.1897077       -19.09692        -51.65685       -24.67722             -200               0             -200               0
1.51485               -0.1948862        -19.2721        -51.39893       -27.29858             -200               0             -200               0
1.52145               -0.2001888       -19.44937        -51.13211       -29.96973             -200               0             -200               0
1.52805               -0.2056137       -19.62882        -50.85757       -32.69614             -200               0             -200               0
1.53465               -0.2111614       -19.81052        -50.57656       -35.48192             -200               0             -200               0
1.54125               -0.2168322       -19.99456        -50.29033       -38.32981             -200               0             -200               0
1.54785               -0.2226293       -20.18105        -50.00012       -41.24132             -200               0             -200               0
1.55446                -0.228555       -20.37008        -49.70712       -44.21682             -200               0             -200               0
1.56106               -0.2346131       -20.56177        -49.41244       -47.25565             -200               0             -200               0
1.56766               -0.2408133       -20.75623        -49.11715        -50.3563             -200               0             -200               0
1.57426               -0.2471594       -20.95358        -48.82217       -53.51655             -200               0             -200               0
1.58086               -0.2536642       -21.15394        -48.52838       -56.73358             -200               0             -200               0
1.58746               -0.2603367       -21.35744        -48.23652       -60.00409             -200               0             -200               0
1.59406                -0.267192       -21.56419        -47.94723       -63.32448             -200               0             -200               0
1.60066                -0.274245       -21.77433        -47.66107       -66.69084             -200               0             -200               0
1.60726               -0.2815108       -21.98796        -47.37851       -70.09914             -200               0             -200               0
1.61386               -0.2890099        -22.2052        -47.09989       -73.54526             -200               0             -200               0
1.62046               -0.2967622       -22.42615        -46.82552       -77.02502             -200               0             -200               0
1.62706               -0.3047868       -22.65092        -46.55558        -80.5343             -200               0             -200               0
1.63366                -0.313109       -22.87959        -46.29022       -84.06904             -200               0             -200               0
1.64026               -0.3217514       -23.11226        -46.02948       -87.62526             -200               0             -200               0
1.64686               -0.3307386         -23.349        -45.77337       -91.19915             -200               0             -200               0
1.65347                -0.340096       -23.58986        -45.52183       -94.78705             -200               0             -200               0
1.66007               -0.3498491       -23.83492        -45.27474       -98.38546             -200               0             -200               0
1.66667               -0.3600242        -24.0842        -45.03192       -101.9911             -200               0             -200               0
1.67327               -0.3706461       -24.33776        -44.79318       -105.6009             -200               0             -200               0
1.67987               -0.3817403       -24.59561        -44.55826       -109.2121             -200               0             -200               0
1.68647               -0.3933328       -24.85779        -44.32686       -112.8221             -200               0             -200               0
1.69307               -0.4054476       -25.12431        -44.09865       -116.4286             -200               0             -200               0
1.69967               -0.4181081       -25.39518        -43.87328       -120.0296             -200               0             -200               0
1.70627               -0.4313378       -25.67042        -43.65037       -123.6233             -200               0             -200               0
1.71287               -0.4451586       -25.95002        -43.42949       -127.2085             -200               0             -200               0
1.71947               -0.4595926       -26.23401        -43.21023       -130.7839             -200               0             -200               0
1.72607               -0.4746595       -26.52239        -42.99214       -134.3489             -200               0             -200               0
1.73267               -0.4903786       -26.81517        -42.77478       -137.9031             -200               0             -200               0
1.73927               -0.5067712       -27.11239        -42.55769       -141.4465             -200               0             -200               0
1.74587               -0.5238561       -27.41406        -42.34042       -144.9794             -200               0             -200               0
1.75248               -0.5416507       -27.72022        -42.12254       -148.5024             -200               0             -200               0
1.75908               -0.5601741       -28.03093        -41.90361       -152.0167             -200               0             -200               0
1.76568               -0.5794456       -28.34623        -41.68323       -155.5235             -200               0             -200               0
1.77228               -0.5994845        -28.6662        -41.46102       -159.0246             -200               0             -200               0
1.77888               -0.6203134       -28.99092        -41.23665        -162.522             -200               0             -200               0
1.78548               -0.6419525       -29.32049        -41.00979        -166.018             -200               0             -200               0
1.79208               -0.6644272       -29.65502         -40.7802        -169.515             -200               0             -200               0
1.79868               -0.6877628       -29.99461        -40.54766       -173.0157             -200               0             -200               0
1.80528               -0.7119886       -30.33942          -40.312       -176.5231             -200               0             -200               0
1.81188               -0.7371354       -30.68956        -40.07311          179.96             -200               0             -200               0
1.81848               -0.7632383       -31.04521        -39.83095        176.4305             -200               0             -200               0
1.82508               -0.7903355        -31.4065        -39.58551        172.8853             -200               0             -200               0
1.83168               -0.8184701       -31.77361        -39.33684        169.3215             -200               0             -200               0
1.83828               -0.8476875        -32.1467        -39.08506        165.7361             -200               0             -200               0
1.84488               -0.8780386       -32.52592        -38.83032        162.1263             -200               0             -200               0
1.85149               -0.9095791       -32.91145        -38.57282        158.4895             -200               0             -200               0
1.85809               -0.9423689       -33.30345         -38.3128        154.8232             -200               0             -200               0
1.86469               -0.9764722       -33.70205        -38.05054        151.1252             -200               0             -200               0
1.87129                 -1.01196        -34.1074        -37.78634        147.3935             -200               0             -200               0
1.87789                -1.048906       -34.51961        -37.52054        143.6264             -200               0             -200               0
1.88449                -1.087389       -34.93881        -37.25348        139.8223             -200               0             -200               0
1.89109                -1.127494       -35.36506        -36.98553        135.9801             -200               0             -200               0
1.89769                 -1.16931       -35.79844        -36.71705        132.0988             -200               0             -200               0
1.90429                -1.212928       -36.23898        -36.44843        128.1776             -200               0             -200               0
1.91089                -1.258446        -36.6867        -36.18002        124.2162             -200               0             -200               0
1.91749                -1.305967       -37.14158        -35.91221        120.2142             -200               0             -200               0
1.92409                -1.355593       -37.60357        -35.64535        116.1716             -200               0             -200               0
1.93069                -1.407434       -38.07258        -35.37978        112.0886             -200               0             -200               0
1.93729                -1.461602       -38.54851        -35.11585        107.9655             -200               0             -200               0
1.94389                -1.518212       -39.03119        -34.85387        103.8029             -200               0             -200               0
1.9505                  -1.57738       -39.52045        -34.59414         99.6013             -200               0             -200               0
1.9571                 -1.639228       -40.01604        -34.33696         95.3615             -200               0             -200               0
1.9637                 -1.703877       -40.51771         -34.0826        91.08435             -200               0             -200               0
1.9703                 -1.771451       -41.02516         -33.8313         86.7708             -200               0             -200               0
1.9769                 -1.842079       -41.53804         -33.5833        82.42186             -200               0             -200               0
1.9835                 -1.915887       -42.05598        -33.33882        78.03862             -200               0             -200               0
1.9901                 -1.993007       -42.57856        -33.09804        73.62218             -200               0             -200               0
1.9967                 -2.073571       -43.10531        -32.86117        69.17371             -200               0             -200               0
2.0033                 -2.157712       -43.63574        -32.62836        64.69439             -200               0             -200               0
2.0099                 -2.245567       -44.16931        -32.39977        60.18541             -200               0             -200               0
2.0165                 -2.337273       -44.70544        -32.17553        55.64799             -200               0             -200               0
2.0231                 -2.432971       -45.24351        -31.95577        51.08332             -200               0             -200               0
2.0297                 -2.532804       -45.78285         -31.7406        46.49262             -200               0             -200               0
2.0363                 -2.636916       -46.32275        -31.53011        41.87709             -200               0             -200               0
2.0429                 -2.745455       -46.86246         -31.3244         37.2379             -200               0             -200               0
2.0495                 -2.858573       -47.40119        -31.12355        32.57623             -200               0             -200               0
2.05611                -2.976424       -47.93805        -30.92762        27.89324             -200               0             -200               0
2.06271                -3.099167       -48.47216        -30.73668        23.19005             -200               0             -200               0
2.06931                -3.226967       -49.00253        -30.55077        18.46779             -200               0             -200               0
2.07591                 -3.35999       -49.52814        -30.36994        13.72753             -200               0             -200               0
2.08251                 -3.49841       -50.04786        -30.19424        8.970357             -200               0             -200               0
2.08911                -3.642408       -50.56052        -30.02368        4.197309             -200               0             -200               0
2.09571                -3.792168       -51.06486         -29.8583      -0.5905903             -200               0             -200               0
2.10231                -3.947883        -51.5595        -29.69813       -5.392344             -200               0             -200               0
2.10891                -4.109753       -52.04296        -29.54317       -10.20697             -200               0             -200               0
2.11551                -4.277984       -52.51367        -29.39344       -15.03352             -200               0             -200               0
2.12211                -4.452793       -52.96989        -29.24895       -19.87106             -200               0             -200               0
2.12871                -4.634403       -53.40976        -29.10971       -24.71867             -200               0             -200               0
2.13531                -4.823046       -53.83123        -28.97571       -29.57547             -200               0             -200               0
2.14191                -5.018963       -54.23208        -28.84696       -34.44058             -200               0             -200               0
2.14851                -5.222402       -54.60988        -28.72345       -39.31314             -200               0             -200               0
2.15512                -5.433621       -54.96194        -28.60517       -44.19232             -200               0             -200               0
2.16172                -5.652884       -55.28532        -28.49212        -49.0773             -200               0             -200               0
2.16832                -5.880461        -55.5768        -28.38429       -53.96726             -200               0             -200               0
2.17492                -6.116627       -55.83277        -28.28167       -58.86143             -200               0             -200               0
2.18152                -6.361661       -56.04928        -28.18424       -63.75901             -200               0             -200               0
2.18812                -6.615839       -56.22193        -28.09198       -68.65924             -200               0             -200               0
2.19472                -6.879435       -56.34583        -28.00488       -73.56137             -200               0             -200               0
2.20132                 -7.15271       -56.41554        -27.92292       -78.46465             -200               0             -200               0
2.20792                -7.435911         -56.425        -27.84608       -83.36835             -200               0             -200               0
2.21452                -7.729258       -56.36744        -27.77433       -88.27173             -200               0             -200               0
2.22112                 -8.03293       -56.23532        -27.70766       -93.17408             -200               0             -200               0
2.22772                -8.347055        -56.0202        -27.64604       -98.07469             -200               0             -200               0
2.23432                -8.671683       -55.71269        -27.58945       -102.9728             -200               0             -200               0
2.24092                -9.006766       -55.30228        -27.53784       -107.8678             -200               0             -200               0
2.24752                -9.352119       -54.77731        -27.49121        -112.759             -200               0             -200               0
2.25413                -9.707382       -54.12486        -27.44951       -117.6456             -200               0             -200               0
2.26073                -10.07196       -53.33066        -27.41271       -122.5269             -200               0             -200               0
2.26733                -10.44498       -52.37911        -27.38079       -127.4023             -200               0             -200               0
2.27393                -10.82517       -51.25335        -27.35369       -132.2711             -200               0             -200               0
2.28053                -11.21079        -49.9354         -27.3314       -137.1326             -200               0             -200               0
2.28713                -11.59955       -48.40659        -27.31385       -141.9861             -200               0             -200               0
2.29373                -11.98841       -46.64811        -27.30103       -146.8309             -200               0             -200               0