! TOUCHSTONE file generated by CST MICROWAVE STUDIO
! Date and time: Sat Mar  8 13:55:43 2025
! Project name: non_fractured.cst
! Parameters = {B=2.5; D=160; F=25; Feed=2.85625; L=100; M=20; R=0.384908; S=2.5; Theta=270; length=57.125; wave=114.25}
! Header version: 2024
! Port assignment regex: !\s*Touchstone port\s*([0-9]+)\s*=\s*(CST MWS port|CST DES external port|CST DES block port)\s*(.+)\s* \(\"(.*)\"\)(\s*mode\s*([0-9]+))?.*
! Touchstone port assignment:
! Touchstone port 1 = CST MWS port 1 ("")
! Touchstone port 2 = CST MWS port 2 ("")
# GHz S DB R 50
1                    -0.02018173       -9.757346        -66.32109       -176.4592             -200               0             -200               0
1.0066                -0.0209107       -9.844677        -66.33025        178.6363             -200               0             -200               0
1.0132               -0.02165125       -9.932536        -66.36766        173.8754             -200               0             -200               0
1.0198               -0.02240239       -10.02095        -66.43318        169.2736             -200               0             -200               0
1.0264               -0.02316439       -10.10992        -66.52658        164.8492             -200               0             -200               0
1.033                -0.02393778       -10.19949        -66.64742        160.6235             -200               0             -200               0
1.0396                -0.0247211       -10.28967        -66.79493        156.6217             -200               0             -200               0
1.0462               -0.02551748       -10.38049        -66.96787        152.8729             -200               0             -200               0
1.05281              -0.02632478       -10.47197        -67.16426        149.4103             -200               0             -200               0
1.05941              -0.02714672       -10.56412        -67.38111        146.2715             -200               0             -200               0
1.06601              -0.02798434       -10.65698        -67.61403        143.4978             -200               0             -200               0
1.07261              -0.02883969       -10.75056        -67.85679        141.1326             -200               0             -200               0
1.07921              -0.02971441       -10.84489        -68.10074        139.2183             -200               0             -200               0
1.08581              -0.03061326       -10.93997        -68.33442        137.7912             -200               0             -200               0
1.09241              -0.03153686       -11.03583        -68.54324        136.8739             -200               0             -200               0
1.09901              -0.03248854       -11.13248        -68.70981        136.4649             -200               0             -200               0
1.10561              -0.03347159       -11.22993        -68.81497        136.5274             -200               0             -200               0
1.11221              -0.03448955       -11.32818           -68.84        136.9808             -200               0             -200               0
1.11881               -0.0355453       -11.42725        -68.76965        137.6998             -200               0             -200               0
1.12541              -0.03664193       -11.52714        -68.59525        138.5247             -200               0             -200               0
1.13201               -0.0377825       -11.62785        -68.31672        139.2829             -200               0             -200               0
1.13861              -0.03896868       -11.72938        -67.94259        139.8152             -200               0             -200               0
1.14521              -0.04020363       -11.83172        -67.48792        139.9965             -200               0             -200               0
1.15182              -0.04148802       -11.93487        -66.97125        139.7471             -200               0             -200               0
1.15842              -0.04282564       -12.03884        -66.41149        139.0307             -200               0             -200               0
1.16502              -0.04421669        -12.1436        -65.82581        137.8468             -200               0             -200               0
1.17162              -0.04566079       -12.24917        -65.22853        136.2185             -200               0             -200               0
1.17822              -0.04716081       -12.35552        -64.63085        134.1832             -200               0             -200               0
1.18482              -0.04871534       -12.46267        -64.04115        131.7843             -200               0             -200               0
1.19142              -0.05032549       -12.57059        -63.46537         129.066             -200               0             -200               0
1.19802              -0.05198867        -12.6793         -62.9076         126.071             -200               0             -200               0
1.20462              -0.05370434       -12.78879        -62.37052        122.8382             -200               0             -200               0
1.21122              -0.05547147       -12.89907        -61.85577        119.4023             -200               0             -200               0
1.21782              -0.05728965       -13.01013        -61.36424        115.7943             -200               0             -200               0
1.22442              -0.05915559       -13.12199        -60.89629         112.041             -200               0             -200               0
1.23102              -0.06106985       -13.23466        -60.45196        108.1661             -200               0             -200               0
1.23762              -0.06302704       -13.34816        -60.03102        104.1902             -200               0             -200               0
1.24422              -0.06502809       -13.46249        -59.63308        100.1315             -200               0             -200               0
1.25083              -0.06707121       -13.57769        -59.25768        96.00579             -200               0             -200               0
1.25743              -0.06915367       -13.69377        -58.90428        91.82734             -200               0             -200               0
1.26403              -0.07127654       -13.81076         -58.5723        87.60881             -200               0             -200               0
1.27063              -0.07343594       -13.92869        -58.26117        83.36169             -200               0             -200               0
1.27723              -0.07563375       -14.04759        -57.97031        79.09644             -200               0             -200               0
1.28383              -0.07786901        -14.1675        -57.69912        74.82275             -200               0             -200               0
1.29043              -0.08014232       -14.28844        -57.44704        70.54967             -200               0             -200               0
1.29703              -0.08245421       -14.41045         -57.2135        66.28575             -200               0             -200               0
1.30363              -0.08480578       -14.53357        -56.99791        62.03917             -200               0             -200               0
1.31023              -0.08719994       -14.65783         -56.7997        57.81785             -200               0             -200               0
1.31683              -0.08963552       -14.78327        -56.61827        53.62954             -200               0             -200               0
1.32343              -0.09211835       -14.90992        -56.45301        49.48187             -200               0             -200               0
1.33003              -0.09464995       -15.03782        -56.30328        45.38244             -200               0             -200               0
1.33663              -0.09723242       -15.16698        -56.16838        41.33885             -200               0             -200               0
1.34323              -0.09987142       -15.29745        -56.04756        37.35871             -200               0             -200               0
1.34984               -0.1025676       -15.42925        -55.94001         33.4497             -200               0             -200               0
1.35644               -0.1053264       -15.56241         -55.8448        29.61951             -200               0             -200               0
1.36304               -0.1081496       -15.69694        -55.76091        25.87583             -200               0             -200               0
1.36964               -0.1110415       -15.83287         -55.6872         22.2263             -200               0             -200               0
1.37624               -0.1140053       -15.97022        -55.62237        18.67837             -200               0             -200               0
1.38284               -0.1170442       -16.10901        -55.56494         15.2392             -200               0             -200               0
1.38944               -0.1201601       -16.24925        -55.51325        11.91544             -200               0             -200               0
1.39604               -0.1233555       -16.39096        -55.46546        8.713025             -200               0             -200               0
1.40264               -0.1266329       -16.53415         -55.4195        5.636833             -200               0             -200               0
1.40924               -0.1299933       -16.67886         -55.3731        2.690386             -200               0             -200               0
1.41584               -0.1334375       -16.82508        -55.32378      -0.1245638             -200               0             -200               0
1.42244               -0.1369671       -16.97285        -55.26893       -2.808428             -200               0             -200               0
1.42904               -0.1405817       -17.12219        -55.20581       -5.364197             -200               0             -200               0
1.43564               -0.1442813       -17.27313        -55.13162        -7.79779             -200               0             -200               0
1.44224                -0.148067       -17.42569        -55.04363       -10.11831             -200               0             -200               0
1.44884               -0.1519352       -17.57991        -54.93926       -12.33817             -200               0             -200               0
1.45545               -0.1558883       -17.73583        -54.81621       -14.47297             -200               0             -200               0
1.46205               -0.1599245        -17.8935        -54.67257       -16.54119             -200               0             -200               0
1.46865                -0.164043       -18.05297        -54.50693       -18.56362             -200               0             -200               0
1.47525               -0.1682443        -18.2143        -54.31848       -20.56259             -200               0             -200               0
1.48185               -0.1725274       -18.37755        -54.10704       -22.56104             -200               0             -200               0
1.48845               -0.1768941       -18.54279        -53.87306       -24.58148             -200               0             -200               0
1.49505               -0.1813449        -18.7101        -53.61759       -26.64514             -200               0             -200               0
1.50165               -0.1858822       -18.87955        -53.34222       -28.77104             -200               0             -200               0
1.50825               -0.1905087       -19.05123        -53.04892       -30.97548             -200               0             -200               0
1.51485               -0.1952274       -19.22524           -52.74       -33.27157             -200               0             -200               0
1.52145               -0.2000454       -19.40166        -52.41792       -35.66915             -200               0             -200               0
1.52805               -0.2049666       -19.58058        -52.08522       -38.17484             -200               0             -200               0
1.53465               -0.2099987       -19.76212        -51.74439       -40.79227             -200               0             -200               0
1.54125               -0.2151514       -19.94637        -51.39781       -43.52244             -200               0             -200               0
1.54785               -0.2204337       -20.13342        -51.04772       -46.36411             -200               0             -200               0
1.55446               -0.2258567       -20.32338        -50.69613        -49.3142             -200               0             -200               0
1.56106               -0.2314332       -20.51633        -50.34485       -52.36821             -200               0             -200               0
1.56766               -0.2371772       -20.71238        -49.99545       -55.52059             -200               0             -200               0
1.57426               -0.2431022       -20.91162        -49.64928       -58.76505             -200               0             -200               0
1.58086               -0.2492245       -21.11412         -49.3075       -62.09482             -200               0             -200               0
1.58746               -0.2555614       -21.31997        -48.97106       -65.50284             -200               0             -200               0
1.59406               -0.2621298       -21.52925        -48.64072       -68.98196             -200               0             -200               0
1.60066               -0.2689476         -21.742        -48.31711       -72.52507             -200               0             -200               0
1.60726               -0.2760347       -21.95832         -48.0007       -76.12517             -200               0             -200               0
1.61386               -0.2834086       -22.17823        -47.69183       -79.77544             -200               0             -200               0
1.62046               -0.2910882       -22.40179        -47.39074       -83.46931             -200               0             -200               0
1.62706               -0.2990939       -22.62905        -47.09758       -87.20044             -200               0             -200               0
1.63366                -0.307444       -22.86004        -46.81238       -90.96281             -200               0             -200               0
1.64026               -0.3161573        -23.0948        -46.53513       -94.75065             -200               0             -200               0
1.64686               -0.3252518       -23.33334        -46.26573       -98.55849             -200               0             -200               0
1.65347               -0.3347457       -23.57569        -46.00403       -102.3812             -200               0             -200               0
1.66007               -0.3446561       -23.82188        -45.74981       -106.2138             -200               0             -200               0
1.66667               -0.3549992       -24.07191        -45.50283       -110.0518             -200               0             -200               0
1.67327               -0.3657905       -24.32583        -45.26275       -113.8909             -200               0             -200               0
1.67987               -0.3770452       -24.58364        -45.02925        -117.727             -200               0             -200               0
1.68647               -0.3887807       -24.84538        -44.80191       -121.5564             -200               0             -200               0
1.69307               -0.4010071       -25.11108        -44.58031       -125.3757             -200               0             -200               0
1.69967               -0.4137385       -25.38076        -44.36398       -129.1818             -200               0             -200               0
1.70627               -0.4269907       -25.65447        -44.15241       -132.9718             -200               0             -200               0
1.71287               -0.4407746       -25.93227        -43.94507       -136.7434             -200               0             -200               0
1.71947               -0.4551027       -26.21421         -43.7414       -140.4943             -200               0             -200               0
1.72607               -0.4699902       -26.50037         -43.5408       -144.2229             -200               0             -200               0
1.73267               -0.4854505       -26.79083        -43.34266       -147.9278             -200               0             -200               0
1.73927               -0.5014972       -27.08567        -43.14635        -151.608             -200               0             -200               0
1.74587               -0.5181461         -27.385        -42.95122       -155.2632             -200               0             -200               0
1.75248               -0.5354144       -27.68895        -42.75662       -158.8931             -200               0             -200               0
1.75908               -0.5533197       -27.99763         -42.5619       -162.4983             -200               0             -200               0
1.76568                -0.571884       -28.31119        -42.36641       -166.0796             -200               0             -200               0
1.77228               -0.5911297       -28.62976        -42.16953       -169.6384             -200               0             -200               0
1.77888               -0.6110824       -28.95353        -41.97064       -173.1766             -200               0             -200               0
1.78548               -0.6317688       -29.28264        -41.76919       -176.6964             -200               0             -200               0
1.79208               -0.6532212       -29.61728        -41.56464        179.7993             -200               0             -200               0
1.79868               -0.6754727       -29.95762        -41.35651        176.3074             -200               0             -200               0
1.80528               -0.6985624       -30.30385        -41.14439        172.8244             -200               0             -200               0
1.81188               -0.7225311       -30.65615        -40.92793        169.3463             -200               0             -200               0
1.81848               -0.7474254       -31.01471        -40.70686        165.8692             -200               0             -200               0
1.82508                -0.773293       -31.37972        -40.48099        162.3887             -200               0             -200               0
1.83168                -0.800188       -31.75134        -40.25019        158.9004             -200               0             -200               0
1.83828               -0.8281681       -32.12976        -40.01445        155.3999             -200               0             -200               0
1.84488               -0.8572953       -32.51514         -39.7738        151.8829             -200               0             -200               0
1.85149               -0.8876343       -32.90763        -39.52838        148.3451             -200               0             -200               0
1.85809               -0.9192564       -33.30739         -39.2784        144.7823             -200               0             -200               0
1.86469               -0.9522348       -33.71452        -39.02411        141.1909             -200               0             -200               0
1.87129                -0.986647       -34.12915        -38.76585        137.5672             -200               0             -200               0
1.87789                -1.022575       -34.55136        -38.50401        133.9081             -200               0             -200               0
1.88449                -1.060104       -34.98125        -38.23901        130.2108             -200               0             -200               0
1.89109                -1.099324       -35.41884        -37.97129        126.4727             -200               0             -200               0
1.89769                -1.140327       -35.86418        -37.70136         122.692             -200               0             -200               0
1.90429                -1.183209       -36.31727        -37.42969        118.8669             -200               0             -200               0
1.91089                -1.228071        -36.7781        -37.15681        114.9963             -200               0             -200               0
1.91749                -1.275013       -37.24662         -36.8832        111.0791             -200               0             -200               0
1.92409                -1.324143       -37.72276        -36.60937        107.1148             -200               0             -200               0
1.93069                -1.375568       -38.20644        -36.33581        103.1033             -200               0             -200               0
1.93729                -1.429399       -38.69751        -36.06298        99.04459             -200               0             -200               0
1.94389                -1.485753       -39.19584        -35.79134        94.93898             -200               0             -200               0
1.9505                 -1.544745       -39.70124        -35.52132        90.78706             -200               0             -200               0
1.9571                 -1.606496       -40.21352        -35.25332        86.58956             -200               0             -200               0
1.9637                 -1.671129       -40.73242        -34.98772        82.34743             -200               0             -200               0
1.9703                 -1.738772       -41.25768        -34.72486        78.06173             -200               0             -200               0
1.9769                 -1.809554         -41.789        -34.46509        73.73366             -200               0             -200               0
1.9835                 -1.883605       -42.32605        -34.20869        69.36451             -200               0             -200               0
1.9901                 -1.961063       -42.86846        -33.95594        64.95563             -200               0             -200               0
1.9967                 -2.042069       -43.41584        -33.70709        60.50843             -200               0             -200               0
2.0033                 -2.126767       -43.96774        -33.46236        56.02439             -200               0             -200               0
2.0099                 -2.215301       -44.52368        -33.22197        51.50498             -200               0             -200               0
2.0165                 -2.307828       -45.08315         -32.9861        46.95169             -200               0             -200               0
2.0231                 -2.404502        -45.6456         -32.7549        42.36602             -200               0             -200               0
2.0297                 -2.505486        -46.2104        -32.52853        37.74945             -200               0             -200               0
2.0363                 -2.610948       -46.77691        -32.30711        33.10347             -200               0             -200               0
2.0429                  -2.72106        -47.3444        -32.09076        28.42952             -200               0             -200               0
2.0495                 -2.836001       -47.91211        -31.87958        23.72904             -200               0             -200               0
2.05611                -2.955959        -48.4792        -31.67365        19.00343             -200               0             -200               0
2.06271                -3.081124       -49.04475        -31.47305        14.25406             -200               0             -200               0
2.06931                -3.211696       -49.60777        -31.27785        9.482283             -200               0             -200               0
2.07591                -3.347884        -50.1672        -31.08809        4.689393             -200               0             -200               0
2.08251                -3.489902       -50.72185        -30.90383      -0.1233332             -200               0             -200               0
2.08911                -3.637971       -51.27047         -30.7251       -4.954657             -200               0             -200               0
2.09571                -3.792327       -51.81165        -30.55193        -9.80338             -200               0             -200               0
2.10231                 -3.95321       -52.34387        -30.38435       -14.66833             -200               0             -200               0
2.10891                -4.120869       -52.86549        -30.22237       -19.54836             -200               0             -200               0
2.11551                -4.295564       -53.37467        -30.06602       -24.44239             -200               0             -200               0
2.12211                -4.477565       -53.86943        -29.91529       -29.34932             -200               0             -200               0
2.12871                 -4.66715       -54.34758        -29.77019       -34.26813             -200               0             -200               0
2.13531                -4.864607       -54.80672        -29.63074        -39.1978             -200               0             -200               0
2.14191                -5.070234       -55.24418        -29.49691       -44.13733             -200               0             -200               0
2.14851                -5.284336       -55.65705        -29.36871       -49.08578             -200               0             -200               0
2.15512                -5.507226       -56.04211        -29.24613        -54.0422             -200               0             -200               0
2.16172                -5.739227       -56.39579        -29.12917       -59.00568             -200               0             -200               0
2.16832                -5.980663       -56.71413         -29.0178       -63.97531             -200               0             -200               0
2.17492                 -6.23186       -56.99273        -28.91203       -68.95024             -200               0             -200               0
2.18152                -6.493147       -57.22675        -28.81182       -73.92961             -200               0             -200               0
2.18812                -6.764845       -57.41073        -28.71717       -78.91256             -200               0             -200               0
2.19472                -7.047264       -57.53863        -28.62806       -83.89828             -200               0             -200               0
2.20132                -7.340695        -57.6037        -28.54446       -88.88597             -200               0             -200               0
2.20792                  -7.6454       -57.59838        -28.46636       -93.87481             -200               0             -200               0
2.21452                -7.961596       -57.51423        -28.39374       -98.86402             -200               0             -200               0
2.22112                -8.289438       -57.34183        -28.32657       -103.8528             -200               0             -200               0
2.22772                   -8.629       -57.07058        -28.26484       -108.8404             -200               0             -200               0
2.23432                -8.980237       -56.68868         -28.2085       -113.8261             -200               0             -200               0
2.24092                -9.342949       -56.18297        -28.15755       -118.8091             -200               0             -200               0
2.24752                -9.716732       -55.53881        -28.11196       -123.7886             -200               0             -200               0
2.25413                -10.10091       -54.74002        -28.07168        -128.764             -200               0             -200               0
2.26073                -10.49447       -53.76884        -28.03671       -133.7343             -200               0             -200               0
2.26733                -10.89593       -52.60608          -28.007        -138.699             -200               0             -200               0
2.27393                -11.30327       -51.23131        -27.98253       -143.6572             -200               0             -200               0
2.28053                -11.71376       -49.62333        -27.96325       -148.6082             -200               0             -200               0
2.28713                -12.12382       -47.76097        -27.94914       -153.5513             -200               0             -200               0
2.29373                -12.52889        -45.6244        -27.94016       -158.4857             -200               0             -200               0