! TOUCHSTONE file generated by CST MICROWAVE STUDIO
! Date and time: Sat Mar  8 13:55:02 2025
! Project name: non_fractured.cst
! Parameters = {B=2.5; D=160; F=25; Feed=2.85625; L=100; M=10; R=0.384908; S=1; Theta=180; length=57.125; wave=114.25}
! Header version: 2024
! Port assignment regex: !\s*Touchstone port\s*([0-9]+)\s*=\s*(CST MWS port|CST DES external port|CST DES block port)\s*(.+)\s* \(\"(.*)\"\)(\s*mode\s*([0-9]+))?.*
! Touchstone port assignment:
! Touchstone port 1 = CST MWS port 1 ("")
! Touchstone port 2 = CST MWS port 2 ("")
# GHz S DB R 50
1                    -0.01835564       -9.759596        -67.41262       -162.6259             -200               0             -200               0
1.0066               -0.01927203       -9.848187        -67.45284       -166.8843             -200               0             -200               0
1.0132               -0.02022985       -9.937036         -67.5229       -170.9646             -200               0             -200               0
1.0198               -0.02122041       -10.02613        -67.62228       -174.8425             -200               0             -200               0
1.0264               -0.02223511       -10.11547        -67.75012         -178.49             -200               0             -200               0
1.033                -0.02326514       -10.20506        -67.90504        178.1255             -200               0             -200               0
1.0396               -0.02430139       -10.29493        -68.08483        175.0413             -200               0             -200               0
1.0462               -0.02533643       -10.38511        -68.28614        172.2998             -200               0             -200               0
1.05281              -0.02636153       -10.47563        -68.50401        169.9471             -200               0             -200               0
1.05941              -0.02737078       -10.56655        -68.73129         168.032             -200               0             -200               0
1.06601              -0.02835746       -10.65793        -68.95809        166.6013             -200               0             -200               0
1.07261              -0.02931883       -10.74982        -69.17117        165.6944             -200               0             -200               0
1.07921              -0.03025086       -10.84232        -69.35376        165.3327             -200               0             -200               0
1.08581               -0.0311546       -10.93547        -69.48599        165.5078             -200               0             -200               0
1.09241               -0.0320284       -11.02937        -69.54646        166.1681             -200               0             -200               0
1.09901              -0.03287637       -11.12409        -69.51509        167.2104             -200               0             -200               0
1.10561              -0.03370153        -11.2197        -69.37687        168.4826             -200               0             -200               0
1.11221              -0.03451063       -11.31626        -69.12528        169.7999             -200               0             -200               0
1.11881              -0.03531011       -11.41384        -68.76396        170.9738             -200               0             -200               0
1.12541              -0.03610968        -11.5125        -68.30565        171.8414             -200               0             -200               0
1.13201              -0.03691677       -11.61227        -67.76916        172.2864             -200               0             -200               0
1.13861              -0.03774475       -11.71319        -67.17551        172.2446             -200               0             -200               0
1.14521              -0.03860213       -11.81529        -66.54483         171.698             -200               0             -200               0
1.15182              -0.03950145       -11.91858         -65.8944        170.6621             -200               0             -200               0
1.15842              -0.04045346       -12.02306        -65.23798        169.1731             -200               0             -200               0
1.16502              -0.04146942       -12.12872         -64.5859        167.2774             -200               0             -200               0
1.17162              -0.04255878       -12.23553        -63.94551        165.0243             -200               0             -200               0
1.17822              -0.04373183       -12.34347        -63.32184        162.4617             -200               0             -200               0
1.18482              -0.04499462       -12.45249        -62.71814         159.634             -200               0             -200               0
1.19142              -0.04635643       -12.56255        -62.13637        156.5809             -200               0             -200               0
1.19802              -0.04781959       -12.67358        -61.57754        153.3371             -200               0             -200               0
1.20462              -0.04938858       -12.78554        -61.04203        149.9332             -200               0             -200               0
1.21122              -0.05106446       -12.89835        -60.52979        146.3955             -200               0             -200               0
1.21782              -0.05284603       -13.01198        -60.04045        142.7468             -200               0             -200               0
1.22442              -0.05473271       -13.12635        -59.57346        139.0071             -200               0             -200               0
1.23102              -0.05671634       -13.24141        -59.12814        135.1936             -200               0             -200               0
1.23762              -0.05879389       -13.35712        -58.70374        131.3214             -200               0             -200               0
1.24422               -0.0609576       -13.47345        -58.29945        127.4038             -200               0             -200               0
1.25083              -0.06319764       -13.59037        -57.91446        123.4525             -200               0             -200               0
1.25743              -0.06550435       -13.70785        -57.54793         119.478             -200               0             -200               0
1.26403              -0.06786735       -13.82591        -57.19903        115.4899             -200               0             -200               0
1.27063              -0.07027601       -13.94456        -56.86692        111.4965             -200               0             -200               0
1.27723              -0.07271783       -14.06382        -56.55076        107.5056             -200               0             -200               0
1.28383              -0.07518412       -14.18373        -56.24971        103.5243             -200               0             -200               0
1.29043              -0.07766387       -14.30435        -55.96295        99.55907             -200               0             -200               0
1.29703              -0.08014774       -14.42574        -55.68961        95.61592             -200               0             -200               0
1.30363              -0.08262884       -14.54799        -55.42884        91.70035             -200               0             -200               0
1.31023              -0.08510061       -14.67119        -55.17977        87.81745             -200               0             -200               0
1.31683              -0.08755847       -14.79542        -54.94149         83.9719             -200               0             -200               0
1.32343              -0.09000073        -14.9208        -54.71308        80.16795             -200               0             -200               0
1.33003              -0.09242729       -15.04744        -54.49359        76.40942             -200               0             -200               0
1.33663              -0.09483979       -15.17544        -54.28205         72.6997             -200               0             -200               0
1.34323              -0.09724483       -15.30493        -54.07744        69.04171             -200               0             -200               0
1.34984              -0.09964616         -15.436        -53.87871        65.43782             -200               0             -200               0
1.35644               -0.1020547       -15.56875        -53.68481        61.88986             -200               0             -200               0
1.36304                -0.104481       -15.70329        -53.49462        58.39902             -200               0             -200               0
1.36964               -0.1069373       -15.83968        -53.30703        54.96583             -200               0             -200               0
1.37624               -0.1094366       -15.97802        -53.12092        51.59008             -200               0             -200               0
1.38284               -0.1119957       -16.11835        -52.93515        48.27078             -200               0             -200               0
1.38944               -0.1146308       -16.26073        -52.74861        45.00615             -200               0             -200               0
1.39604               -0.1173561       -16.40518        -52.56022        41.79352             -200               0             -200               0
1.40264               -0.1201909       -16.55173        -52.36896        38.62943             -200               0             -200               0
1.40924               -0.1231474       -16.70037        -52.17385        35.50955             -200               0             -200               0
1.41584               -0.1262446        -16.8511        -51.97403        32.42882             -200               0             -200               0
1.42244               -0.1294947       -17.00388        -51.76874        29.38143             -200               0             -200               0
1.42904               -0.1329107        -17.1587        -51.55732        26.36101             -200               0             -200               0
1.43564               -0.1365032       -17.31549         -51.3393        23.36069             -200               0             -200               0
1.44224               -0.1402821       -17.47421        -51.11432         20.3733             -200               0             -200               0
1.44884               -0.1442532       -17.63481        -50.88219        17.39149             -200               0             -200               0
1.45545                -0.148422       -17.79723         -50.6429        14.40795             -200               0             -200               0
1.46205                 -0.15279        -17.9614        -50.39656        11.41553             -200               0             -200               0
1.46865               -0.1573568       -18.12728        -50.14346         8.40744             -200               0             -200               0
1.47525               -0.1621214       -18.29482          -49.884        5.377369             -200               0             -200               0
1.48185               -0.1670774       -18.46398        -49.61872         2.31962             -200               0             -200               0
1.48845               -0.1722198       -18.63473        -49.34824      -0.7708083             -200               0             -200               0
1.49505               -0.1775418       -18.80707        -49.07325       -3.898151             -200               0             -200               0
1.50165               -0.1830328       -18.98099        -48.79452       -7.065848             -200               0             -200               0
1.50825               -0.1886835       -19.15651        -48.51284       -10.27653             -200               0             -200               0
1.51485               -0.1944839       -19.33367        -48.22901       -13.53204             -200               0             -200               0
1.52145               -0.2004243       -19.51254        -47.94384       -16.83346             -200               0             -200               0
1.52805               -0.2064954       -19.69317        -47.65812       -20.18117             -200               0             -200               0
1.53465               -0.2126882       -19.87568         -47.3726       -23.57492             -200               0             -200               0
1.54125               -0.2189958       -20.06017        -47.08799       -27.01385             -200               0             -200               0
1.54785               -0.2254133       -20.24676        -46.80499       -30.49664             -200               0             -200               0
1.55446               -0.2319379       -20.43561        -46.52419       -34.02146             -200               0             -200               0
1.56106               -0.2385701       -20.62686        -46.24617       -37.58619             -200               0             -200               0
1.56766               -0.2453108       -20.82067        -45.97142       -41.18835             -200               0             -200               0
1.57426               -0.2521684       -21.01723         -45.7004       -44.82522             -200               0             -200               0
1.58086               -0.2591505       -21.21669        -45.43348       -48.49388             -200               0             -200               0
1.58746               -0.2662708       -21.41925          -45.171       -52.19127             -200               0             -200               0
1.59406               -0.2735444       -21.62505        -44.91321        -55.9142             -200               0             -200               0
1.60066               -0.2809912       -21.83428        -44.66035       -59.65941             -200               0             -200               0
1.60726                -0.288632       -22.04707        -44.41257       -63.42361             -200               0             -200               0
1.61386               -0.2964925       -22.26358        -44.16998       -67.20346             -200               0             -200               0
1.62046               -0.3045986       -22.48393        -43.93264       -70.99566             -200               0             -200               0
1.62706               -0.3129811       -22.70823        -43.70058       -74.79692             -200               0             -200               0
1.63366               -0.3216702       -22.93658        -43.47374       -78.60399             -200               0             -200               0
1.64026               -0.3306967       -23.16904        -43.25206       -82.41369             -200               0             -200               0
1.64686               -0.3400935       -23.40566        -43.03542       -86.22292             -200               0             -200               0
1.65347               -0.3498934       -23.64649        -42.82366       -90.02866             -200               0             -200               0
1.66007               -0.3601273       -23.89152        -42.61657       -93.82804             -200               0             -200               0
1.66667               -0.3708271       -24.14077         -42.4139       -97.61828             -200               0             -200               0
1.67327               -0.3820209        -24.3942        -42.21539       -101.3968             -200               0             -200               0
1.67987               -0.3937358       -24.65178         -42.0207       -105.1611             -200               0             -200               0
1.68647               -0.4059989       -24.91347        -41.82948       -108.9089             -200               0             -200               0
1.69307                -0.418832       -25.17922        -41.64133       -112.6382             -200               0             -200               0
1.69967               -0.4322545       -25.44896        -41.45584       -116.3473             -200               0             -200               0
1.70627               -0.4462875       -25.72265        -41.27253       -120.0344             -200               0             -200               0
1.71287               -0.4609408       -26.00022        -41.09093       -123.6985             -200               0             -200               0
1.71947               -0.4762304       -26.28163        -40.91052       -127.3385             -200               0             -200               0
1.72607               -0.4921645       -26.56685        -40.73077       -130.9538             -200               0             -200               0
1.73267               -0.5087514       -26.85587        -40.55112       -134.5442             -200               0             -200               0
1.73927               -0.5259969       -27.14867        -40.37102       -138.1099             -200               0             -200               0
1.74587               -0.5439054       -27.44528        -40.18989       -141.6514             -200               0             -200               0
1.75248               -0.5624809       -27.74575        -40.00718       -145.1698             -200               0             -200               0
1.75908                -0.581729       -28.05015        -39.82232       -148.6663             -200               0             -200               0
1.76568               -0.6016539       -28.35857        -39.63479        -152.143             -200               0             -200               0
1.77228               -0.6222617       -28.67115        -39.44407        -155.602             -200               0             -200               0
1.77888               -0.6435623       -28.98805         -39.2497       -159.0461             -200               0             -200               0
1.78548               -0.6655666       -29.30943        -39.05124       -162.4782             -200               0             -200               0
1.79208               -0.6882907       -29.63552        -38.84832       -165.9019             -200               0             -200               0
1.79868               -0.7117532       -29.96653        -38.64063       -169.3209             -200               0             -200               0
1.80528               -0.7359819       -30.30272        -38.42793        -172.739             -200               0             -200               0
1.81188               -0.7610064       -30.64435        -38.21003       -176.1605             -200               0             -200               0
1.81848               -0.7868642        -30.9917        -37.98684       -179.5895             -200               0             -200               0
1.82508               -0.8136005       -31.34506        -37.75833        176.9696             -200               0             -200               0
1.83168               -0.8412664       -31.70469        -37.52456        173.5126             -200               0             -200               0
1.83828               -0.8699205       -32.07087        -37.28566        170.0352             -200               0             -200               0
1.84488               -0.8996287       -32.44388        -37.04182        166.5336             -200               0             -200               0
1.85149               -0.9304652       -32.82396        -36.79331        163.0038             -200               0             -200               0
1.85809               -0.9625114       -33.21132        -36.54044        159.4425             -200               0             -200               0
1.86469               -0.9958535       -33.60617         -36.2836        155.8463             -200               0             -200               0
1.87129                -1.030586       -34.00866        -36.02318        152.2125             -200               0             -200               0
1.87789                 -1.06681       -34.41891        -35.75965        148.5385             -200               0             -200               0
1.88449                -1.104629       -34.83699        -35.49346        144.8222             -200               0             -200               0
1.89109                -1.144156       -35.26292        -35.22513        141.0619             -200               0             -200               0
1.89769                -1.185501       -35.69669        -34.95513        137.2562             -200               0             -200               0
1.90429                -1.228783        -36.1382        -34.68399        133.4042             -200               0             -200               0
1.91089                -1.274121       -36.58733        -34.41218         129.505             -200               0             -200               0
1.91749                -1.321635       -37.04388        -34.14021        125.5584             -200               0             -200               0
1.92409                -1.371445       -37.50761        -33.86854        121.5644             -200               0             -200               0
1.93069                -1.423671       -37.97821        -33.59764        117.5231             -200               0             -200               0
1.93729                -1.478434       -38.45532        -33.32794        113.4349             -200               0             -200               0
1.94389                -1.535849       -38.93854        -33.05984        109.3006             -200               0             -200               0
1.9505                 -1.596029        -39.4274        -32.79374        105.1208             -200               0             -200               0
1.9571                 -1.659089        -39.9214        -32.53001        100.8967             -200               0             -200               0
1.9637                 -1.725132       -40.42002        -32.26897        96.62921             -200               0             -200               0
1.9703                 -1.794264       -40.92266        -32.01095        92.31964             -200               0             -200               0
1.9769                 -1.866583       -41.42871        -31.75622        87.96924             -200               0             -200               0
1.9835                 -1.942183       -41.93755        -31.50505        83.57935             -200               0             -200               0
1.9901                 -2.021154       -42.44851        -31.25768        79.15136             -200               0             -200               0
1.9967                 -2.103581       -42.96094        -31.01433        74.68669             -200               0             -200               0
2.0033                 -2.189545       -43.47414        -30.77519        70.18678             -200               0             -200               0
2.0099                 -2.279124       -43.98742        -30.54044        65.65307             -200               0             -200               0
2.0165                 -2.372393       -44.50012        -30.31024        61.08702             -200               0             -200               0
2.0231                 -2.469422       -45.01153        -30.08473        56.49005             -200               0             -200               0
2.0297                 -2.570284         -45.521        -29.86403        51.86359             -200               0             -200               0
2.0363                 -2.675047       -46.02785        -29.64826        47.20903             -200               0             -200               0
2.0429                 -2.783783       -46.53143        -29.43751        42.52776             -200               0             -200               0
2.0495                 -2.896564        -47.0311        -29.23187        37.82111             -200               0             -200               0
2.05611                -3.013463       -47.52624        -29.03141         33.0904             -200               0             -200               0
2.06271                -3.134563       -48.01622        -28.83619        28.33692             -200               0             -200               0
2.06931                -3.259948       -48.50046        -28.64628        23.56191             -200               0             -200               0
2.07591                -3.389711       -48.97834        -28.46172        18.76661             -200               0             -200               0
2.08251                -3.523955       -49.44926        -28.28254        13.95217             -200               0             -200               0
2.08911                -3.662794       -49.91262        -28.10878        9.119769             -200               0             -200               0
2.09571                -3.806352       -50.36777        -27.94047        4.270509             -200               0             -200               0
2.10231                 -3.95477       -50.81409        -27.77763      -0.5945222             -200               0             -200               0
2.10891                -4.108202       -51.25085        -27.62027       -5.474271             -200               0             -200               0
2.11551                -4.266821       -51.67731        -27.46841       -10.36772             -200               0             -200               0
2.12211                -4.430816       -52.09264        -27.32205       -15.27387             -200               0             -200               0
2.12871                -4.600401       -52.49593         -27.1812       -20.19176             -200               0             -200               0
2.13531                -4.775803       -52.88613        -27.04585       -25.12044             -200               0             -200               0
2.14191                -4.957278       -53.26207        -26.91602       -30.05901             -200               0             -200               0
2.14851                -5.145101       -53.62239         -26.7917       -35.00658             -200               0             -200               0
2.15512                -5.339571       -53.96558        -26.67287       -39.96228             -200               0             -200               0
2.16172                -5.541013       -54.28984        -26.55954       -44.92527             -200               0             -200               0
2.16832                -5.749771       -54.59314        -26.45169       -49.89471             -200               0             -200               0
2.17492                -5.966219       -54.87313        -26.34931        -54.8698             -200               0             -200               0
2.18152                -6.190747       -55.12711        -26.25239       -59.84976             -200               0             -200               0
2.18812                -6.423773       -55.35197        -26.16092       -64.83379             -200               0             -200               0
2.19472                -6.665729       -55.54412        -26.07489       -69.82116             -200               0             -200               0
2.20132                 -6.91707       -55.69947        -25.99427       -74.81109             -200               0             -200               0
2.20792                 -7.17826       -55.81332        -25.91906       -79.80287             -200               0             -200               0
2.21452                -7.449774       -55.88024        -25.84923       -84.79576             -200               0             -200               0
2.22112                -7.732087       -55.89407        -25.78476       -89.78905             -200               0             -200               0
2.22772                -8.025671       -55.84775        -25.72564       -94.78202             -200               0             -200               0
2.23432                -8.330973       -55.73317        -25.67186       -99.77398             -200               0             -200               0
2.24092                -8.648409       -55.54111        -25.62338       -104.7642             -200               0             -200               0
2.24752                -8.978337       -55.26102        -25.58019       -109.7521             -200               0             -200               0
2.25413                -9.321027       -54.88088        -25.54226       -114.7368             -200               0             -200               0
2.26073                -9.676631       -54.38699        -25.50958       -119.7178             -200               0             -200               0
2.26733                -10.04512       -53.76383        -25.48212       -124.6944             -200               0             -200               0
2.27393                -10.42623       -52.99382        -25.45985       -129.6658             -200               0             -200               0
2.28053                -10.81937       -52.05722        -25.44275       -134.6313             -200               0             -200               0
2.28713                 -11.2235       -50.93203         -25.4308       -139.5904             -200               0             -200               0
2.29373                -11.63704       -49.59402        -25.42396       -144.5423             -200               0             -200               0