! TOUCHSTONE file generated by CST MICROWAVE STUDIO
! Date and time: Sat Mar  8 13:55:23 2025
! Project name: non_fractured.cst
! Parameters = {B=2.5; D=160; F=15; Feed=2.85625; L=100; M=20; R=0.384908; S=1.5; Theta=270; length=57.125; wave=114.25}
! Header version: 2024
! Port assignment regex: !\s*Touchstone port\s*([0-9]+)\s*=\s*(CST MWS port|CST DES external port|CST DES block port)\s*(.+)\s* \(\"(.*)\"\)(\s*mode\s*([0-9]+))?.*
! Touchstone port assignment:
! Touchstone port 1 = CST MWS port 1 ("")
! Touchstone port 2 = CST MWS port 2 ("")
# GHz S DB R 50
1                    -0.01892771       -9.758412        -68.56339       -145.1043             -200               0             -200               0
1.0066               -0.01978735       -9.846736        -68.36297        -149.103             -200               0             -200               0
1.0132               -0.02068788       -9.935382        -68.18391       -153.0204             -200               0             -200               0
1.0198               -0.02162163       -10.02434        -68.02492       -156.8464             -200               0             -200               0
1.0264               -0.02258166       -10.11359        -67.88467       -160.5703             -200               0             -200               0
1.033                -0.02356038       -10.20316        -67.76166       -164.1814             -200               0             -200               0
1.0396               -0.02455084       -10.29304        -67.65426       -167.6688             -200               0             -200               0
1.0462                -0.0255459       -10.38327        -67.56062       -171.0215             -200               0             -200               0
1.05281              -0.02653922       -10.47387        -67.47862       -174.2289             -200               0             -200               0
1.05941              -0.02752411       -10.56488        -67.40585       -177.2807             -200               0             -200               0
1.06601              -0.02849582       -10.65635        -67.33957        179.8323             -200               0             -200               0
1.07261              -0.02944988       -10.74834        -67.27667        177.1179             -200               0             -200               0
1.07921              -0.03038262       -10.84089        -67.21367        174.5817             -200               0             -200               0
1.08581              -0.03129335       -10.93408        -67.14673        172.2263             -200               0             -200               0
1.09241              -0.03218134       -11.02796        -67.07172        170.0505             -200               0             -200               0
1.09901              -0.03304676        -11.1226        -66.98432        168.0482             -200               0             -200               0
1.10561              -0.03389287       -11.21807        -66.88017        166.2082             -200               0             -200               0
1.11221              -0.03472302       -11.31443        -66.75509        164.5132             -200               0             -200               0
1.11881              -0.03554269       -11.41173        -66.60529        162.9402             -200               0             -200               0
1.12541              -0.03635745       -11.51004        -66.42766        161.4605             -200               0             -200               0
1.13201              -0.03717559        -11.6094        -66.21997        160.0415             -200               0             -200               0
1.13861              -0.03800375       -11.70984        -65.98107        158.6475             -200               0             -200               0
1.14521              -0.03885263        -11.8114        -65.71097        157.2425             -200               0             -200               0
1.15182              -0.03973039        -11.9141        -65.41081        155.7914             -200               0             -200               0
1.15842              -0.04064627       -12.01796        -65.08277        154.2627             -200               0             -200               0
1.16502              -0.04161046       -12.12299        -64.72984        152.6294             -200               0             -200               0
1.17162              -0.04263186       -12.22916        -64.35559        150.8703             -200               0             -200               0
1.17822              -0.04371852       -12.33649        -63.96391        148.9699             -200               0             -200               0
1.18482              -0.04487948       -12.44493        -63.55879        146.9188             -200               0             -200               0
1.19142              -0.04612066       -12.55446         -63.1441        144.7125             -200               0             -200               0
1.19802              -0.04744793       -12.66506        -62.72348        142.3511             -200               0             -200               0
1.20462              -0.04886706       -12.77667        -62.30021        139.8383             -200               0             -200               0
1.21122              -0.05037896       -12.88926        -61.87721        137.1804             -200               0             -200               0
1.21782              -0.05198759       -13.00279        -61.45697        134.3857             -200               0             -200               0
1.22442              -0.05369226        -13.1172        -61.04161        131.4638             -200               0             -200               0
1.23102              -0.05549129       -13.23247        -60.63288         128.425             -200               0             -200               0
1.23762              -0.05738325       -13.34855        -60.23219          125.28             -200               0             -200               0
1.24422                -0.059363       -13.46542        -59.84067        122.0394             -200               0             -200               0
1.25083              -0.06142714       -13.58303         -59.4592        118.7139             -200               0             -200               0
1.25743              -0.06356839       -13.70139        -59.08843        115.3135             -200               0             -200               0
1.26403               -0.0657803       -13.82048        -58.72883        111.8482             -200               0             -200               0
1.27063              -0.06805578       -13.94029        -58.38071        108.3271             -200               0             -200               0
1.27723              -0.07038693       -14.06085        -58.04425        104.7593             -200               0             -200               0
1.28383              -0.07276711       -14.18217        -57.71952         101.153             -200               0             -200               0
1.29043              -0.07518748       -14.30428        -57.40649        97.51621             -200               0             -200               0
1.29703              -0.07764315       -14.42723        -57.10503        93.85638             -200               0             -200               0
1.30363              -0.08012601       -14.55107        -56.81498        90.18058             -200               0             -200               0
1.31023              -0.08263081       -14.67586        -56.53608        86.49547             -200               0             -200               0
1.31683              -0.08515554       -14.80167        -56.26801        82.80735             -200               0             -200               0
1.32343              -0.08769636       -14.92857        -56.01043        79.12217             -200               0             -200               0
1.33003              -0.09025132       -15.05664        -55.76292        75.44554             -200               0             -200               0
1.33663              -0.09282241       -15.18597        -55.52503        71.78277             -200               0             -200               0
1.34323              -0.09541103       -15.31663        -55.29624        68.13884             -200               0             -200               0
1.34984              -0.09802149       -15.44872        -55.07601        64.51841             -200               0             -200               0
1.35644               -0.1006576        -15.5823        -54.86374        60.92585             -200               0             -200               0
1.36304                -0.103327       -15.71747        -54.65879        57.36515             -200               0             -200               0
1.36964               -0.1060377       -15.85428        -54.46046        53.83998             -200               0             -200               0
1.37624                  -0.1088       -15.99282        -54.26804         50.3536             -200               0             -200               0
1.38284               -0.1116236       -16.13312        -54.08074        46.90889             -200               0             -200               0
1.38944               -0.1145195       -16.27524        -53.89774        43.50823             -200               0             -200               0
1.39604               -0.1174991       -16.41922         -53.7182        40.15354             -200               0             -200               0
1.40264               -0.1205749       -16.56508        -53.54123        36.84617             -200               0             -200               0
1.40924               -0.1237591       -16.71285        -53.36592         33.5869             -200               0             -200               0
1.41584               -0.1270623       -16.86252        -53.19135        30.37587             -200               0             -200               0
1.42244               -0.1304961       -17.01411        -53.01658        27.21256             -200               0             -200               0
1.42904               -0.1340698        -17.1676        -52.84069        24.09574             -200               0             -200               0
1.43564               -0.1377933       -17.32296        -52.66276        21.02346             -200               0             -200               0
1.44224               -0.1416731       -17.48019        -52.48194        17.99306             -200               0             -200               0
1.44884               -0.1457172       -17.63926         -52.2974        15.00117             -200               0             -200               0
1.45545               -0.1499289       -17.80013        -52.10838        12.04375             -200               0             -200               0
1.46205               -0.1543113       -17.96278        -51.91423        9.116149             -200               0             -200               0
1.46865               -0.1588666       -18.12719        -51.71437        6.213184             -200               0             -200               0
1.47525               -0.1635945       -18.29332        -51.50835         3.32924             -200               0             -200               0
1.48185               -0.1684924       -18.46117        -51.29584       0.4583926             -200               0             -200               0
1.48845               -0.1735598       -18.63072        -51.07662       -2.405472             -200               0             -200               0
1.49505               -0.1787907       -18.80198        -50.85063        -5.26851             -200               0             -200               0
1.50165               -0.1841808       -18.97496        -50.61792       -8.136787             -200               0             -200               0
1.50825               -0.1897246       -19.14968        -50.37866       -11.01614             -200               0             -200               0
1.51485               -0.1954151       -19.32619        -50.13316       -13.91206             -200               0             -200               0
1.52145                -0.201248       -19.50453         -49.8818       -16.82959             -200               0             -200               0
1.52805               -0.2072172       -19.68477        -49.62507       -19.77321             -200               0             -200               0
1.53465               -0.2133179       -19.86699        -49.36352       -22.74681             -200               0             -200               0
1.54125               -0.2195451       -20.05128        -49.09777       -25.75363             -200               0             -200               0
1.54785               -0.2258983       -20.23776        -48.82845       -28.79624             -200               0             -200               0
1.55446               -0.2323751       -20.42654        -48.55624       -31.87654             -200               0             -200               0
1.56106                -0.238978       -20.61774        -48.28181       -34.99578             -200               0             -200               0
1.56766               -0.2457089       -20.81151        -48.00581       -38.15461             -200               0             -200               0
1.57426               -0.2525751       -21.00799        -47.72889       -41.35307             -200               0             -200               0
1.58086               -0.2595844       -21.20732        -47.45167       -44.59074             -200               0             -200               0
1.58746                -0.266748       -21.40965        -47.17471       -47.86666             -200               0             -200               0
1.59406               -0.2740784       -21.61512        -46.89854       -51.17954             -200               0             -200               0
1.60066                -0.281592       -21.82389        -46.62365       -54.52769             -200               0             -200               0
1.60726               -0.2893082       -22.03608        -46.35045       -57.90916             -200               0             -200               0
1.61386               -0.2972476       -22.25183        -46.07931       -61.32177             -200               0             -200               0
1.62046                -0.305432       -22.47126        -45.81056       -64.76313             -200               0             -200               0
1.62706               -0.3138869       -22.69447        -45.54445       -68.23075             -200               0             -200               0
1.63366               -0.3226393       -22.92155         -45.2812       -71.72203             -200               0             -200               0
1.64026               -0.3317144       -23.15259        -45.02094       -75.23433             -200               0             -200               0
1.64686               -0.3411423       -23.38765        -44.76379       -78.76501             -200               0             -200               0
1.65347               -0.3509506       -23.62679         -44.5098       -82.31141             -200               0             -200               0
1.66007               -0.3611678       -23.87002        -44.25898       -85.87097             -200               0             -200               0
1.66667                -0.371822       -24.11739        -44.01127       -89.44118             -200               0             -200               0
1.67327               -0.3829398       -24.36889         -43.7666       -93.01963             -200               0             -200               0
1.67987                 -0.39455       -24.62452        -43.52486       -96.60405             -200               0             -200               0
1.68647               -0.4066744       -24.88427        -43.28586       -100.1923             -200               0             -200               0
1.69307                -0.419338       -25.14812        -43.04943       -103.7825             -200               0             -200               0
1.69967               -0.4325611       -25.41604        -42.81533       -107.3727             -200               0             -200               0
1.70627               -0.4463664       -25.68801        -42.58331       -110.9615             -200               0             -200               0
1.71287               -0.4607687         -25.964        -42.35309       -114.5476             -200               0             -200               0
1.71947                -0.475786       -26.24399        -42.12436       -118.1297             -200               0             -200               0
1.72607                -0.491432       -26.52796        -41.89681       -121.7071             -200               0             -200               0
1.73267                -0.507719       -26.81591        -41.67009       -125.2792             -200               0             -200               0
1.73927               -0.5246584       -27.10784        -41.44388       -128.8457             -200               0             -200               0
1.74587               -0.5422618       -27.40379        -41.21781       -132.4065             -200               0             -200               0
1.75248               -0.5605383       -27.70377        -40.99154        -135.962             -200               0             -200               0
1.75908                -0.579497       -28.00787        -40.76473       -139.5126             -200               0             -200               0
1.76568               -0.5991508       -28.31615        -40.53703       -143.0592             -200               0             -200               0
1.77228               -0.6195071       -28.62871        -40.30814       -146.6029             -200               0             -200               0
1.77888               -0.6405816       -28.94567        -40.07776        -150.145             -200               0             -200               0
1.78548               -0.6623897       -29.26719         -39.8456       -153.6873             -200               0             -200               0
1.79208               -0.6849472       -29.59341        -39.61143       -157.2314             -200               0             -200               0
1.79868               -0.7082756       -29.92451        -39.37504       -160.7795             -200               0             -200               0
1.80528               -0.7324019       -30.26071        -39.13625       -164.3337             -200               0             -200               0
1.81188               -0.7573523       -30.60221        -38.89493       -167.8965             -200               0             -200               0
1.81848               -0.7831645       -30.94923        -38.65098       -171.4701             -200               0             -200               0
1.82508               -0.8098763         -31.302        -38.40437       -175.0572             -200               0             -200               0
1.83168                -0.837534       -31.66077        -38.15508       -178.6603             -200               0             -200               0
1.83828               -0.8661879       -32.02576        -37.90316        177.7181             -200               0             -200               0
1.84488               -0.8958957       -32.39719         -37.6487        174.0756             -200               0             -200               0
1.85149               -0.9267221       -32.77531        -37.39181        170.4098             -200               0             -200               0
1.85809               -0.9587361        -33.1603        -37.13266        166.7183             -200               0             -200               0
1.86469               -0.9920124       -33.55236        -36.87144         162.999             -200               0             -200               0
1.87129                -1.026635       -33.95165        -36.60838        159.2501             -200               0             -200               0
1.87789                 -1.06269        -34.3583        -36.34374        155.4696             -200               0             -200               0
1.88449                 -1.10027       -34.77242        -36.07779         151.656             -200               0             -200               0
1.89109                -1.139472       -35.19408        -35.81083        147.8079             -200               0             -200               0
1.89769                -1.180401       -35.62331        -35.54317        143.9241             -200               0             -200               0
1.90429                -1.223159       -36.06011        -35.27513        140.0037             -200               0             -200               0
1.91089                -1.267856       -36.50441        -35.00703        136.0459             -200               0             -200               0
1.91749                -1.314604       -36.95613        -34.73921        132.0503             -200               0             -200               0
1.92409                -1.363517       -37.41513        -34.47198        128.0163             -200               0             -200               0
1.93069                 -1.41471       -37.88122        -34.20567        123.9439             -200               0             -200               0
1.93729                  -1.4683       -38.35415        -33.94059        119.8331             -200               0             -200               0
1.94389                  -1.5244       -38.83368        -33.67706         115.684             -200               0             -200               0
1.9505                 -1.583131       -39.31946        -33.41537         111.497             -200               0             -200               0
1.9571                 -1.644606       -39.81114        -33.15579        107.2725             -200               0             -200               0
1.9637                 -1.708942       -40.30831        -32.89861        103.0111             -200               0             -200               0
1.9703                 -1.776252       -40.81054        -32.64409        98.71342             -200               0             -200               0
1.9769                 -1.846649       -41.31735        -32.39245        94.38026             -200               0             -200               0
1.9835                 -1.920242       -41.82825        -32.14393        90.01244             -200               0             -200               0
1.9901                 -1.997142       -42.34268        -31.89875        85.61086             -200               0             -200               0
1.9967                 -2.077455       -42.86009        -31.65709        81.17646             -200               0             -200               0
2.0033                 -2.161289       -43.37989        -31.41916        76.71026             -200               0             -200               0
2.0099                 -2.248749       -43.90148         -31.1851        72.21326             -200               0             -200               0
2.0165                 -2.339937       -44.42422        -30.95509        67.68653             -200               0             -200               0
2.0231                  -2.43496       -44.94747        -30.72926        63.13114             -200               0             -200               0
2.0297                  -2.53392       -45.47057        -30.50775        58.54818             -200               0             -200               0
2.0363                 -2.636923       -45.99286        -30.29068        53.93872             -200               0             -200               0
2.0429                 -2.744074       -46.51363        -30.07816        49.30387             -200               0             -200               0
2.0495                 -2.855483       -47.03219        -29.87027        44.64471             -200               0             -200               0
2.05611                -2.971262       -47.54781        -29.66713        39.96232             -200               0             -200               0
2.06271                -3.091527       -48.05976        -29.46879        35.25777             -200               0             -200               0
2.06931                -3.216398       -48.56728        -29.27534        30.53211             -200               0             -200               0
2.07591                -3.346004       -49.06957        -29.08684         25.7864             -200               0             -200               0
2.08251                -3.480478       -49.56583        -28.90335        21.02166             -200               0             -200               0
2.08911                -3.619965       -50.05521        -28.72491         16.2389             -200               0             -200               0
2.09571                -3.764617       -50.53679        -28.55157        11.43912             -200               0             -200               0
2.10231                -3.914595       -51.00961        -28.38337        6.623294             -200               0             -200               0
2.10891                -4.070075       -51.47266        -28.22034        1.792381             -200               0             -200               0
2.11551                -4.231244       -51.92483        -28.06252       -3.052685             -200               0             -200               0
2.12211                -4.398301        -52.3649        -27.90992       -7.910977             -200               0             -200               0
2.12871                -4.571464       -52.79156        -27.76256       -12.78159             -200               0             -200               0
2.13531                -4.750962       -53.20338        -27.62047       -17.66365             -200               0             -200               0
2.14191                 -4.93704       -53.59874        -27.48366       -22.55627             -200               0             -200               0
2.14851                -5.129962       -53.97585        -27.35213       -27.45861             -200               0             -200               0
2.15512                -5.330006       -54.33273         -27.2259       -32.36983             -200               0             -200               0
2.16172                 -5.53747       -54.66715        -27.10498       -37.28911             -200               0             -200               0
2.16832                -5.752666       -54.97662        -26.98936       -42.21563             -200               0             -200               0
2.17492                -5.975923       -55.25832        -26.87904       -47.14861             -200               0             -200               0
2.18152                -6.207586       -55.50908        -26.77403       -52.08726             -200               0             -200               0
2.18812                -6.448011       -55.72532        -26.67433        -57.0308             -200               0             -200               0
2.19472                -6.697567       -55.90303        -26.57992       -61.97849             -200               0             -200               0
2.20132                -6.956631       -56.03763        -26.49081       -66.92956             -200               0             -200               0
2.20792                 -7.22558       -56.12396        -26.40698       -71.88327             -200               0             -200               0
2.21452                -7.504791       -56.15619        -26.32843       -76.83888             -200               0             -200               0
2.22112                -7.794631        -56.1277        -26.25516       -81.79568             -200               0             -200               0
2.22772                 -8.09544         -56.031        -26.18713       -86.75292             -200               0             -200               0
2.23432                -8.407523       -55.85764        -26.12436        -91.7099             -200               0             -200               0
2.24092                -8.731131         -55.598        -26.06682        -96.6659             -200               0             -200               0
2.24752                -9.066429       -55.24123        -26.01449       -101.6202             -200               0             -200               0
2.25413                -9.413473       -54.77509        -25.96737       -106.5721             -200               0             -200               0
2.26073                -9.772153       -54.18577        -25.92543       -111.5209             -200               0             -200               0
2.26733                -10.14215        -53.4578        -25.88866       -116.4658             -200               0             -200               0
2.27393                -10.52287       -52.57393        -25.85703       -121.4063             -200               0             -200               0
2.28053                -10.91334       -51.51508        -25.83053       -126.3415             -200               0             -200               0
2.28713                -11.31208       -50.26041        -25.80913       -131.2707             -200               0             -200               0
2.29373                -11.71702       -48.78756        -25.79281       -136.1933             -200               0             -200               0