! TOUCHSTONE file generated by CST MICROWAVE STUDIO
! Date and time: Sat Mar  8 13:54:16 2025
! Project name: non_fractured.cst
! Parameters = {B=2.5; D=160; F=20; Feed=2.85625; L=100; M=5; R=0.384908; S=1; Theta=90; length=57.125; wave=114.25}
! Header version: 2024
! Port assignment regex: !\s*Touchstone port\s*([0-9]+)\s*=\s*(CST MWS port|CST DES external port|CST DES block port)\s*(.+)\s* \(\"(.*)\"\)(\s*mode\s*([0-9]+))?.*
! Touchstone port assignment:
! Touchstone port 1 = CST MWS port 1 ("")
! Touchstone port 2 = CST MWS port 2 ("")
# GHz S DB R 50
1                    -0.01845938       -9.811245        -66.91917       -122.9537             -200               0             -200               0
1.00658              -0.01915173       -9.900367        -66.48155       -127.3975             -200               0             -200               0
1.01316                -0.019899       -9.989977         -66.0786       -131.8689             -200               0             -200               0
1.01974              -0.02069654       -10.08004        -65.70841       -136.3529             -200               0             -200               0
1.02632              -0.02154166       -10.17053         -65.3693       -140.8366             -200               0             -200               0
1.03289              -0.02242844       -10.26143        -65.05977       -145.3082             -200               0             -200               0
1.03947              -0.02335503       -10.35271        -64.77846       -149.7566             -200               0             -200               0
1.04605              -0.02431145       -10.44436        -64.52414       -154.1715             -200               0             -200               0
1.05263              -0.02529327       -10.53639        -64.29568       -158.5429             -200               0             -200               0
1.05921              -0.02629282        -10.6288        -64.09199        -162.861             -200               0             -200               0
1.06579              -0.02730395       -10.72161        -63.91203        -167.116             -200               0             -200               0
1.07237              -0.02831958       -10.81484        -63.75481       -171.2979             -200               0             -200               0
1.07895              -0.02933364       -10.90852        -63.61926       -175.3965             -200               0             -200               0
1.08553              -0.03034095       -11.00268        -63.50431       -179.4014             -200               0             -200               0
1.09211              -0.03133398       -11.09738        -63.40878        176.6982             -200               0             -200               0
1.09868              -0.03231114       -11.19268        -63.33139        172.9137             -200               0             -200               0
1.10526              -0.03326761       -11.28862        -63.27066        169.2565             -200               0             -200               0
1.11184              -0.03420247       -11.38528        -63.22495        165.7384             -200               0             -200               0
1.11842              -0.03511581       -11.48273         -63.1923        162.3713             -200               0             -200               0
1.125                -0.03600756       -11.58102        -63.17048         159.167             -200               0             -200               0
1.13158              -0.03688118       -11.68023        -63.15688        156.1364             -200               0             -200               0
1.13816              -0.03773977       -11.78042         -63.1485        153.2895             -200               0             -200               0
1.14474              -0.03858894       -11.88167        -63.14187        150.6345             -200               0             -200               0
1.15132               -0.0394339       -11.98402        -63.13313        148.1768             -200               0             -200               0
1.15789              -0.04028484       -12.08754        -63.11798        145.9183             -200               0             -200               0
1.16447              -0.04114881       -12.19228        -63.09183        143.8561             -200               0             -200               0
1.17105              -0.04203477       -12.29826        -63.04989        141.9816             -200               0             -200               0
1.17763              -0.04295561       -12.40552         -62.9874          140.28             -200               0             -200               0
1.18421              -0.04391927       -12.51409        -62.89991        138.7293             -200               0             -200               0
1.19079              -0.04493816       -12.62396        -62.78355        137.3011             -200               0             -200               0
1.19737              -0.04602196       -12.73516        -62.63533        135.9614             -200               0             -200               0
1.20395              -0.04718269       -12.84766         -62.4534        134.6717             -200               0             -200               0
1.21053              -0.04842921       -12.96144        -62.23723        133.3921             -200               0             -200               0
1.21711              -0.04976989       -13.07649        -61.98761        132.0828             -200               0             -200               0
1.22368              -0.05121594       -13.19276        -61.70656        130.7071             -200               0             -200               0
1.23026              -0.05277153       -13.31021        -61.39716        129.2334             -200               0             -200               0
1.23684              -0.05444349       -13.42881        -61.06324        127.6359             -200               0             -200               0
1.24342              -0.05623556       -13.54849        -60.70909         125.896             -200               0             -200               0
1.25                 -0.05815062        -13.6692        -60.33915        124.0018             -200               0             -200               0
1.25658              -0.06018995        -13.7909        -59.95779        121.9474             -200               0             -200               0
1.26316              -0.06235225       -13.91353        -59.56912        119.7325             -200               0             -200               0
1.26974              -0.06463623       -14.03703        -59.17687        117.3609             -200               0             -200               0
1.27632              -0.06703709       -14.16137        -58.78431        114.8397             -200               0             -200               0
1.28289              -0.06955146       -14.28651        -58.39424        112.1784             -200               0             -200               0
1.28947              -0.07217118       -14.41241        -58.00904        109.3878             -200               0             -200               0
1.29605              -0.07489055       -14.53906        -57.63061        106.4799             -200               0             -200               0
1.30263              -0.07770115       -14.66644         -57.2605        103.4668             -200               0             -200               0
1.30921              -0.08059286       -14.79455        -56.89992        100.3609             -200               0             -200               0
1.31579              -0.08355874       -14.92341        -56.54978        97.17413             -200               0             -200               0
1.32237              -0.08658792       -15.05303        -56.21072        93.91829             -200               0             -200               0
1.32895              -0.08967288       -15.18345        -55.88319         90.6046             -200               0             -200               0
1.33553              -0.09280414       -15.31471        -55.56743        87.24375             -200               0             -200               0
1.34211              -0.09597457       -15.44687        -55.26354        83.84594             -200               0             -200               0
1.34868              -0.09917821          -15.58        -54.97148        80.42078             -200               0             -200               0
1.35526               -0.1024086       -15.71417        -54.69108        76.97737             -200               0             -200               0
1.36184               -0.1056621       -15.84947        -54.42208        73.52429             -200               0             -200               0
1.36842               -0.1089374       -15.98597         -54.1641        70.06965             -200               0             -200               0
1.375                 -0.1122343       -16.12378        -53.91671        66.62104             -200               0             -200               0
1.38158               -0.1155521       -16.26299        -53.67936        63.18562             -200               0             -200               0
1.38816               -0.1188946        -16.4037        -53.45145        59.77007             -200               0             -200               0
1.39474               -0.1222661       -16.54599        -53.23227        56.38058             -200               0             -200               0
1.40132               -0.1256739       -16.68996        -53.02107        53.02288             -200               0             -200               0
1.40789               -0.1291253        -16.8357        -52.81702        49.70216             -200               0             -200               0
1.41447               -0.1326297       -16.98329        -52.61919        46.42308             -200               0             -200               0
1.42105               -0.1361983       -17.13279        -52.42662        43.18966             -200               0             -200               0
1.42763               -0.1398413       -17.28428        -52.23827        40.00528             -200               0             -200               0
1.43421               -0.1435737        -17.4378        -52.05303        36.87258             -200               0             -200               0
1.44079               -0.1474056        -17.5934        -51.86975         33.7934             -200               0             -200               0
1.44737               -0.1513508       -17.75111        -51.68726        30.76871             -200               0             -200               0
1.45395               -0.1554235       -17.91095        -51.50433        27.79853             -200               0             -200               0
1.46053               -0.1596344       -18.07294        -51.31976        24.88188             -200               0             -200               0
1.46711               -0.1639963       -18.23709        -51.13232        22.01674             -200               0             -200               0
1.47368               -0.1685195       -18.40338        -50.94086        19.20002             -200               0             -200               0
1.48026               -0.1732133        -18.5718        -50.74426         16.4276             -200               0             -200               0
1.48684               -0.1780862       -18.74235        -50.54152        13.69432             -200               0             -200               0
1.49342               -0.1831465         -18.915        -50.33173        10.99411             -200               0             -200               0
1.5                   -0.1883976       -19.08973        -50.11412        8.320068             -200               0             -200               0
1.50658               -0.1938432       -19.26653         -49.8881        5.664652             -200               0             -200               0
1.51316               -0.1994865       -19.44537        -49.65324        3.019842             -200               0             -200               0
1.51974               -0.2053267       -19.62624         -49.4093       0.3773522             -200               0             -200               0
1.52632               -0.2113639       -19.80915        -49.15624       -2.271145             -200               0             -200               0
1.53289               -0.2175934       -19.99411        -48.89419       -4.933808             -200               0             -200               0
1.53947               -0.2240151       -20.18111        -48.62347       -7.618411             -200               0             -200               0
1.54605               -0.2306225       -20.37021        -48.34456       -10.33217             -200               0             -200               0
1.55263               -0.2374112       -20.56144        -48.05807       -13.08157             -200               0             -200               0
1.55921               -0.2443767       -20.75487        -47.76472       -15.87228             -200               0             -200               0
1.56579               -0.2515153       -20.95057        -47.46533       -18.70905             -200               0             -200               0
1.57237               -0.2588233       -21.14863        -47.16077       -21.59568             -200               0             -200               0
1.57895               -0.2662967       -21.34917        -46.85196       -24.53504             -200               0             -200               0
1.58553               -0.2739355        -21.5523        -46.53981       -27.52906             -200               0             -200               0
1.59211               -0.2817404       -21.75816        -46.22522       -30.57881             -200               0             -200               0
1.59868               -0.2897137       -21.96691        -45.90908       -33.68457             -200               0             -200               0
1.60526               -0.2978612       -22.17871        -45.59221        -36.8459             -200               0             -200               0
1.61184               -0.3061914       -22.39372        -45.27541       -40.06175             -200               0             -200               0
1.61842               -0.3147162       -22.61213        -44.95939       -43.33053             -200               0             -200               0
1.625                 -0.3234491       -22.83411        -44.64481       -46.65022             -200               0             -200               0
1.63158               -0.3324088       -23.05985        -44.33224       -50.01843             -200               0             -200               0
1.63816               -0.3416172       -23.28952        -44.02221       -53.43251             -200               0             -200               0
1.64474               -0.3510984        -23.5233        -43.71514       -56.88959             -200               0             -200               0
1.65132               -0.3608828       -23.76135        -43.41143       -60.38665             -200               0             -200               0
1.65789               -0.3709985       -24.00383        -43.11137       -63.92061             -200               0             -200               0
1.66447               -0.3814832       -24.25087        -42.81521       -67.48832             -200               0             -200               0
1.67105                -0.392372        -24.5026        -42.52315       -71.08664             -200               0             -200               0
1.67763               -0.4037044       -24.75912         -42.2353       -74.71248             -200               0             -200               0
1.68421               -0.4155219       -25.02052        -41.95176       -78.36279             -200               0             -200               0
1.69079               -0.4278671       -25.28684        -41.67256       -82.03462             -200               0             -200               0
1.69737                -0.440782       -25.55814        -41.39768       -85.72514             -200               0             -200               0
1.70395               -0.4543126       -25.83442        -41.12708       -89.43163             -200               0             -200               0
1.71053                -0.468502       -26.11568        -40.86066       -93.15153             -200               0             -200               0
1.71711               -0.4833932       -26.40188        -40.59831       -96.88243             -200               0             -200               0
1.72368               -0.4990279       -26.69297        -40.33987       -100.6221             -200               0             -200               0
1.73026                -0.515448       -26.98888        -40.08515       -104.3685             -200               0             -200               0
1.73684               -0.5326898       -27.28951        -39.83396       -108.1197             -200               0             -200               0
1.74342               -0.5507917       -27.59475        -39.58607        -111.874             -200               0             -200               0
1.75                  -0.5697856        -27.9045        -39.34123       -115.6301             -200               0             -200               0
1.75658               -0.5897025       -28.21861        -39.09918       -119.3865             -200               0             -200               0
1.76316               -0.6105713       -28.53695        -38.85965       -123.1424             -200               0             -200               0
1.76974               -0.6324165        -28.8594        -38.62234       -126.8968             -200               0             -200               0
1.77632               -0.6552586        -29.1858        -38.38698       -130.6492             -200               0             -200               0
1.78289               -0.6791156       -29.51604        -38.15326       -134.3992             -200               0             -200               0
1.78947               -0.7040032          -29.85        -37.92088       -138.1466             -200               0             -200               0
1.79605               -0.7299336       -30.18757        -37.68957       -141.8915             -200               0             -200               0
1.80263               -0.7569171       -30.52866        -37.45903       -145.6342             -200               0             -200               0
1.80921               -0.7849635       -30.87321        -37.22898       -149.3752             -200               0             -200               0
1.81579               -0.8140788       -31.22117        -36.99917       -153.1152             -200               0             -200               0
1.82237               -0.8442692       -31.57251        -36.76935       -156.8551             -200               0             -200               0
1.82895               -0.8755413       -31.92726        -36.53929        -160.596             -200               0             -200               0
1.83553               -0.9079015       -32.28545        -36.30879        -164.339             -200               0             -200               0
1.84211               -0.9413589       -32.64715        -36.07766       -168.0857             -200               0             -200               0
1.84868               -0.9759223       -33.01245        -35.84576       -171.8375             -200               0             -200               0
1.85526                -1.011605       -33.38147        -35.61295        -175.596             -200               0             -200               0
1.86184                -1.048423       -33.75438        -35.37914       -179.3629             -200               0             -200               0
1.86842                -1.086398       -34.13136        -35.14428          176.86             -200               0             -200               0
1.875                  -1.125556        -34.5126        -34.90831         173.071             -200               0             -200               0
1.88158                -1.165927       -34.89835        -34.67125        169.2683             -200               0             -200               0
1.88816                 -1.20755       -35.28882        -34.43311          165.45             -200               0             -200               0
1.89474                 -1.25047       -35.68429        -34.19396        161.6145             -200               0             -200               0
1.90132                -1.294739       -36.08502        -33.95387        157.7601             -200               0             -200               0
1.90789                -1.340417       -36.49126        -33.71297        153.8851             -200               0             -200               0
1.91447                -1.387572       -36.90328        -33.47138        149.9882             -200               0             -200               0
1.92105                -1.436282       -37.32133        -33.22926        146.0678             -200               0             -200               0
1.92763                -1.486629       -37.74566        -32.98679        142.1228             -200               0             -200               0
1.93421                -1.538708       -38.17648        -32.74415        138.1519             -200               0             -200               0
1.94079                 -1.59262       -38.61398        -32.50155        134.1543             -200               0             -200               0
1.94737                -1.648474       -39.05832        -32.25922        130.1289             -200               0             -200               0
1.95395                -1.706388       -39.50964        -32.01736        126.0752             -200               0             -200               0
1.96053                -1.766488       -39.96802        -31.77621        121.9925             -200               0             -200               0
1.96711                -1.828904       -40.43349        -31.53601        117.8804             -200               0             -200               0
1.97368                -1.893774       -40.90605        -31.29698        113.7387             -200               0             -200               0
1.98026                -1.961245       -41.38563        -31.05936         109.567             -200               0             -200               0
1.98684                -2.031463       -41.87212        -30.82338        105.3655             -200               0             -200               0
1.99342                -2.104588       -42.36534        -30.58927        101.1341             -200               0             -200               0
2                      -2.180777       -42.86504        -30.35724        96.87313             -200               0             -200               0
2.00658                -2.260193       -43.37093        -30.12751        92.58276             -200               0             -200               0
2.01316                -2.343003       -43.88265        -29.90029        88.26339             -200               0             -200               0
2.01974                -2.429381       -44.39977        -29.67576        83.91548             -200               0             -200               0
2.02632                -2.519494       -44.92179        -29.45412        79.53956             -200               0             -200               0
2.03289                -2.613522       -45.44816        -29.23554        75.13621             -200               0             -200               0
2.03947                 -2.71164       -45.97825         -29.0202        70.70609             -200               0             -200               0
2.04605                -2.814028       -46.51141        -28.80825        66.24988             -200               0             -200               0
2.05263                -2.920868       -47.04684        -28.59985        61.76834             -200               0             -200               0
2.05921                -3.032341       -47.58377        -28.39512        57.26223             -200               0             -200               0
2.06579                -3.148634        -48.1213        -28.19421        52.73236             -200               0             -200               0
2.07237                -3.269934        -48.6585        -27.99723        48.17954             -200               0             -200               0
2.07895                -3.396432       -49.19436        -27.80429        43.60463             -200               0             -200               0
2.08553                -3.528318       -49.72781        -27.61549        39.00847             -200               0             -200               0
2.09211                -3.665792       -50.25769        -27.43094        34.39195             -200               0             -200               0
2.09868                -3.809054       -50.78281        -27.25071        29.75593             -200               0             -200               0
2.10526                 -3.95831       -51.30185        -27.07489        25.10128             -200               0             -200               0
2.11184                -4.113773       -51.81345        -26.90354         20.4289             -200               0             -200               0
2.11842                -4.275661       -52.31615        -26.73674        15.73964             -200               0             -200               0
2.125                  -4.444202       -52.80837        -26.57454        11.03438             -200               0             -200               0
2.13158                -4.619632       -53.28844        -26.41699         6.31399             -200               0             -200               0
2.13816                -4.802199       -53.75457        -26.26414        1.579321             -200               0             -200               0
2.14474                -4.992161       -54.20483        -26.11603       -3.168774             -200               0             -200               0
2.15132                -5.189788       -54.63711        -25.97271       -7.929456             -200               0             -200               0
2.15789                -5.395369       -55.04915        -25.83419       -12.70189             -200               0             -200               0
2.16447                -5.609205       -55.43847        -25.70052       -17.48526             -200               0             -200               0
2.17105                -5.831615       -55.80235        -25.57171       -22.27875             -200               0             -200               0
2.17763                -6.062935       -56.13779        -25.44778       -27.08158             -200               0             -200               0
2.18421                -6.303524        -56.4415        -25.32875       -31.89293             -200               0             -200               0
2.19079                -6.553757       -56.70976        -25.21464       -36.71204             -200               0             -200               0
2.19737                -6.814031        -56.9385        -25.10545       -41.53814             -200               0             -200               0
2.20395                 -7.08476       -57.12305         -25.0012       -46.37047             -200               0             -200               0
2.21053                 -7.36638       -57.25825        -24.90188       -51.20828             -200               0             -200               0
2.21711                -7.659338       -57.33819         -24.8075       -56.05084             -200               0             -200               0
2.22368                -7.964094        -57.3562        -24.71806       -60.89741             -200               0             -200               0
2.23026                -8.281111       -57.30465        -24.63356       -65.74728             -200               0             -200               0
2.23684                -8.610846       -57.17486        -24.55399       -70.59973             -200               0             -200               0
2.24342                -8.953732       -56.95684        -24.47935       -75.45406             -200               0             -200               0
2.25                   -9.310157       -56.63915        -24.40962       -80.30957             -200               0             -200               0
2.25658                 -9.68044       -56.20863        -24.34481       -85.16557             -200               0             -200               0
2.26316                -10.06478       -55.65016        -24.28489       -90.02137             -200               0             -200               0
2.26974                 -10.4632       -54.94632        -24.22985        -94.8763             -200               0             -200               0
2.27632                -10.87548       -54.07719        -24.17968       -99.72969             -200               0             -200               0
2.28289                -11.30103          -53.02        -24.13436       -104.5809             -200               0             -200               0
2.28947                -11.73876       -51.74895        -24.09387       -109.4292             -200               0             -200               0