! TOUCHSTONE file generated by CST MICROWAVE STUDIO
! Date and time: Sat Mar  8 13:55:01 2025
! Project name: non_fractured.cst
! Parameters = {B=2.5; D=160; F=25; Feed=2.85625; L=100; M=10; R=0.384908; S=1; Theta=90; length=57.125; wave=114.25}
! Header version: 2024
! Port assignment regex: !\s*Touchstone port\s*([0-9]+)\s*=\s*(CST MWS port|CST DES external port|CST DES block port)\s*(.+)\s* \(\"(.*)\"\)(\s*mode\s*([0-9]+))?.*
! Touchstone port assignment:
! Touchstone port 1 = CST MWS port 1 ("")
! Touchstone port 2 = CST MWS port 2 ("")
# GHz S DB R 50
1                    -0.01835537       -9.759606        -67.41281       -162.6277             -200               0             -200               0
1.0066               -0.01927174       -9.848198        -67.45303       -166.8862             -200               0             -200               0
1.0132               -0.02023007       -9.937048        -67.52308       -170.9664             -200               0             -200               0
1.0198               -0.02122059       -10.02614        -67.62244       -174.8443             -200               0             -200               0
1.0264               -0.02223579       -10.11548        -67.75028       -178.4917             -200               0             -200               0
1.033                -0.02326584       -10.20508        -67.90519        178.1238             -200               0             -200               0
1.0396               -0.02430208       -10.29495        -68.08498        175.0397             -200               0             -200               0
1.0462               -0.02533715       -10.38512        -68.28628        172.2982             -200               0             -200               0
1.05281              -0.02636276       -10.47564        -68.50414        169.9457             -200               0             -200               0
1.05941              -0.02737149       -10.56656        -68.73142        168.0306             -200               0             -200               0
1.06601              -0.02835873       -10.65794        -68.95821           166.6             -200               0             -200               0
1.07261               -0.0293206       -10.74984        -69.17129        165.6932             -200               0             -200               0
1.07921              -0.03025319       -10.84233        -69.35387        165.3317             -200               0             -200               0
1.08581              -0.03115644       -10.93548        -69.48609        165.5069             -200               0             -200               0
1.09241              -0.03203027       -11.02938        -69.54654        166.1672             -200               0             -200               0
1.09901              -0.03287829        -11.1241        -69.51515        167.2097             -200               0             -200               0
1.10561              -0.03370347        -11.2197         -69.3769         168.482             -200               0             -200               0
1.11221              -0.03451265       -11.31626         -69.1253        169.7994             -200               0             -200               0
1.11881              -0.03531265       -11.41384        -68.76395        170.9733             -200               0             -200               0
1.12541              -0.03611179        -11.5125        -68.30561        171.8409             -200               0             -200               0
1.13201              -0.03691894       -11.61227        -67.76909        172.2858             -200               0             -200               0
1.13861              -0.03774692       -11.71319        -67.17543         172.244             -200               0             -200               0
1.14521              -0.03860384       -11.81529        -66.54473        171.6974             -200               0             -200               0
1.15182               -0.0395037       -11.91858        -65.89429        170.6614             -200               0             -200               0
1.15842              -0.04045525       -12.02306        -65.23786        169.1723             -200               0             -200               0
1.16502              -0.04147074       -12.12871        -64.58576        167.2765             -200               0             -200               0
1.17162              -0.04256013       -12.23553        -63.94537        165.0233             -200               0             -200               0
1.17822               -0.0437327       -12.34346         -63.3217        162.4607             -200               0             -200               0
1.18482                -0.044996       -12.45248          -62.718         159.633             -200               0             -200               0
1.19142               -0.0463573       -12.56254        -62.13622        156.5798             -200               0             -200               0
1.19802              -0.04782044       -12.67357        -61.57738         153.336             -200               0             -200               0
1.20462              -0.04938892       -12.78553        -61.04188         149.932             -200               0             -200               0
1.21122              -0.05106478       -12.89835        -60.52963        146.3943             -200               0             -200               0
1.21782              -0.05284638       -13.01197        -60.04029        142.7456             -200               0             -200               0
1.22442              -0.05473146       -13.12634         -59.5733        139.0059             -200               0             -200               0
1.23102              -0.05671613        -13.2414        -59.12798        135.1923             -200               0             -200               0
1.23762              -0.05879359       -13.35712        -58.70358        131.3201             -200               0             -200               0
1.24422              -0.06095683       -13.47344         -58.2993        127.4024             -200               0             -200               0
1.25083              -0.06319684       -13.59036        -57.91431        123.4511             -200               0             -200               0
1.25743                -0.065504       -13.70785        -57.54778        119.4766             -200               0             -200               0
1.26403               -0.0678664       -13.82591        -57.19888        115.4885             -200               0             -200               0
1.27063              -0.07027455       -13.94456        -56.86677         111.495             -200               0             -200               0
1.27723              -0.07271681       -14.06382        -56.55061        107.5041             -200               0             -200               0
1.28383              -0.07518304       -14.18373        -56.24957        103.5228             -200               0             -200               0
1.29043              -0.07766326       -14.30435        -55.96281        99.55757             -200               0             -200               0
1.29703              -0.08014713       -14.42574        -55.68948         95.6144             -200               0             -200               0
1.30363               -0.0826282       -14.54799        -55.42871        91.69881             -200               0             -200               0
1.31023              -0.08509953       -14.67118        -55.17964         87.8159             -200               0             -200               0
1.31683              -0.08755777       -14.79542        -54.94136        83.97033             -200               0             -200               0
1.32343              -0.09000052       -14.92081        -54.71295        80.16636             -200               0             -200               0
1.33003              -0.09242715       -15.04744        -54.49347        76.40782             -200               0             -200               0
1.33663              -0.09484059       -15.17545        -54.28193        72.69809             -200               0             -200               0
1.34323              -0.09724462       -15.30494        -54.07733        69.04009             -200               0             -200               0
1.34984              -0.09964703         -15.436        -53.87861        65.43619             -200               0             -200               0
1.35644               -0.1020556       -15.56876        -53.68471        61.88822             -200               0             -200               0
1.36304               -0.1044814       -15.70329        -53.49453        58.39739             -200               0             -200               0
1.36964               -0.1069372       -15.83969        -53.30695        54.96419             -200               0             -200               0
1.37624               -0.1094377       -15.97802        -53.12084        51.58845             -200               0             -200               0
1.38284               -0.1119968       -16.11835        -52.93508        48.26916             -200               0             -200               0
1.38944               -0.1146318       -16.26073        -52.74855        45.00454             -200               0             -200               0
1.39604               -0.1173573       -16.40518        -52.56017        41.79193             -200               0             -200               0
1.40264               -0.1201916       -16.55173        -52.36892        38.62785             -200               0             -200               0
1.40924               -0.1231488       -16.70037        -52.17382          35.508             -200               0             -200               0
1.41584               -0.1262459       -16.85109        -51.97401        32.42729             -200               0             -200               0
1.42244               -0.1294961       -17.00388        -51.76872        29.37994             -200               0             -200               0
1.42904               -0.1329116       -17.15869        -51.55732        26.35956             -200               0             -200               0
1.43564               -0.1365048       -17.31548         -51.3393        23.35928             -200               0             -200               0
1.44224                -0.140283        -17.4742        -51.11433        20.37193             -200               0             -200               0
1.44884                -0.144254        -17.6348        -50.88221        17.39018             -200               0             -200               0
1.45545               -0.1484226       -17.79721        -50.64292        14.40669             -200               0             -200               0
1.46205               -0.1527901       -17.96139        -50.39658        11.41432             -200               0             -200               0
1.46865               -0.1573569       -18.12727        -50.14349        8.406286             -200               0             -200               0
1.47525               -0.1621205        -18.2948        -49.88404        5.376275             -200               0             -200               0
1.48185               -0.1670766       -18.46396        -49.61876        2.318584             -200               0             -200               0
1.48845               -0.1722195       -18.63472        -49.34828      -0.7717841             -200               0             -200               0
1.49505               -0.1775408       -18.80705        -49.07329       -3.899068             -200               0             -200               0
1.50165               -0.1830314       -18.98097        -48.79457       -7.066705             -200               0             -200               0
1.50825               -0.1886815       -19.15649        -48.51289       -10.27733             -200               0             -200               0
1.51485               -0.1944825       -19.33366        -48.22906       -13.53278             -200               0             -200               0
1.52145               -0.2004232       -19.51253        -47.94389       -16.83415             -200               0             -200               0
1.52805               -0.2064937       -19.69316        -47.65816       -20.18181             -200               0             -200               0
1.53465                -0.212686       -19.87567        -47.37264       -23.57551             -200               0             -200               0
1.54125               -0.2189936       -20.06016        -47.08804       -27.01439             -200               0             -200               0
1.54785               -0.2254109       -20.24675        -46.80503       -30.49712             -200               0             -200               0
1.55446               -0.2319354        -20.4356        -46.52424       -34.02191             -200               0             -200               0
1.56106               -0.2385671       -20.62685        -46.24621        -37.5866             -200               0             -200               0
1.56766               -0.2453087       -20.82067        -45.97147       -41.18872             -200               0             -200               0
1.57426               -0.2521662       -21.01723        -45.70044       -44.82555             -200               0             -200               0
1.58086               -0.2591482       -21.21669        -45.43352       -48.49418             -200               0             -200               0
1.58746               -0.2662683       -21.41925        -45.17103       -52.19153             -200               0             -200               0
1.59406               -0.2735426       -21.62505        -44.91325       -55.91443             -200               0             -200               0
1.60066               -0.2809887       -21.83428        -44.66038       -59.65962             -200               0             -200               0
1.60726               -0.2886299       -22.04708         -44.4126       -63.42379             -200               0             -200               0
1.61386               -0.2964904       -22.26359        -44.17001       -67.20362             -200               0             -200               0
1.62046               -0.3045965       -22.48394        -43.93267        -70.9958             -200               0             -200               0
1.62706               -0.3129795       -22.70824         -43.7006       -74.79704             -200               0             -200               0
1.63366               -0.3216682       -22.93659        -43.47376       -78.60408             -200               0             -200               0
1.64026               -0.3306956       -23.16905        -43.25208       -82.41376             -200               0             -200               0
1.64686               -0.3400924       -23.40567        -43.03544       -86.22298             -200               0             -200               0
1.65347               -0.3498922        -23.6465        -42.82367       -90.02871             -200               0             -200               0
1.66007               -0.3601266       -23.89153        -42.61658       -93.82807             -200               0             -200               0
1.66667               -0.3708258       -24.14078        -42.41392        -97.6183             -200               0             -200               0
1.67327               -0.3820202       -24.39421         -42.2154       -101.3968             -200               0             -200               0
1.67987               -0.3937352       -24.65179        -42.02071       -105.1611             -200               0             -200               0
1.68647               -0.4059976       -24.91348        -41.82949       -108.9089             -200               0             -200               0
1.69307               -0.4188308       -25.17923        -41.64134       -112.6382             -200               0             -200               0
1.69967               -0.4322546       -25.44897        -41.45584       -116.3472             -200               0             -200               0
1.70627               -0.4462864       -25.72265        -41.27254       -120.0344             -200               0             -200               0
1.71287               -0.4609408       -26.00022        -41.09094       -123.6984             -200               0             -200               0
1.71947                 -0.47623       -26.28164        -40.91053       -127.3384             -200               0             -200               0
1.72607               -0.4921647       -26.56686        -40.73077       -130.9537             -200               0             -200               0
1.73267               -0.5087517       -26.85587        -40.55112       -134.5442             -200               0             -200               0
1.73927               -0.5259967       -27.14867        -40.37102       -138.1099             -200               0             -200               0
1.74587               -0.5439051       -27.44528        -40.18989       -141.6514             -200               0             -200               0
1.75248                -0.562482       -27.74575        -40.00718       -145.1697             -200               0             -200               0
1.75908                -0.581729       -28.05015        -39.82232       -148.6663             -200               0             -200               0
1.76568               -0.6016543       -28.35858        -39.63479       -152.1429             -200               0             -200               0
1.77228               -0.6222627       -28.67116        -39.44407        -155.602             -200               0             -200               0
1.77888               -0.6435624       -28.98804         -39.2497        -159.046             -200               0             -200               0
1.78548               -0.6655666       -29.30943        -39.05124       -162.4782             -200               0             -200               0
1.79208               -0.6882907       -29.63552        -38.84832       -165.9019             -200               0             -200               0
1.79868               -0.7117535       -29.96652        -38.64063       -169.3208             -200               0             -200               0
1.80528               -0.7359819       -30.30272        -38.42792        -172.739             -200               0             -200               0
1.81188               -0.7610064       -30.64435        -38.21002       -176.1604             -200               0             -200               0
1.81848               -0.7868641        -30.9917        -37.98683       -179.5894             -200               0             -200               0
1.82508               -0.8136008       -31.34505        -37.75832        176.9697             -200               0             -200               0
1.83168               -0.8412659       -31.70468        -37.52456        173.5126             -200               0             -200               0
1.83828               -0.8699202       -32.07087        -37.28566        170.0353             -200               0             -200               0
1.84488                -0.899629       -32.44388        -37.04182        166.5336             -200               0             -200               0
1.85149               -0.9304657       -32.82396        -36.79331        163.0039             -200               0             -200               0
1.85809               -0.9625115       -33.21132        -36.54044        159.4425             -200               0             -200               0
1.86469                -0.995853       -33.60617         -36.2836        155.8464             -200               0             -200               0
1.87129                -1.030587       -34.00866        -36.02318        152.2125             -200               0             -200               0
1.87789                 -1.06681        -34.4189        -35.75965        148.5385             -200               0             -200               0
1.88449                -1.104629       -34.83698        -35.49347        144.8222             -200               0             -200               0
1.89109                -1.144155       -35.26291        -35.22513        141.0619             -200               0             -200               0
1.89769                -1.185501       -35.69668        -34.95514        137.2563             -200               0             -200               0
1.90429                -1.228783        -36.1382        -34.68399        133.4042             -200               0             -200               0
1.91089                -1.274121       -36.58733        -34.41218         129.505             -200               0             -200               0
1.91749                -1.321634       -37.04388        -34.14021        125.5585             -200               0             -200               0
1.92409                -1.371445       -37.50761        -33.86855        121.5644             -200               0             -200               0
1.93069                -1.423672        -37.9782        -33.59764        117.5231             -200               0             -200               0
1.93729                -1.478433       -38.45531        -33.32794        113.4349             -200               0             -200               0
1.94389                -1.535848       -38.93853        -33.05984        109.3006             -200               0             -200               0
1.9505                 -1.596028       -39.42739        -32.79375        105.1208             -200               0             -200               0
1.9571                 -1.659088       -39.92139        -32.53001        100.8967             -200               0             -200               0
1.9637                 -1.725132       -40.42001        -32.26898        96.62922             -200               0             -200               0
1.9703                 -1.794264       -40.92265        -32.01095        92.31965             -200               0             -200               0
1.9769                 -1.866583        -41.4287        -31.75622        87.96925             -200               0             -200               0
1.9835                 -1.942183       -41.93754        -31.50506        83.57936             -200               0             -200               0
1.9901                 -2.021153       -42.44851        -31.25769        79.15137             -200               0             -200               0
1.9967                 -2.103579       -42.96093        -31.01434        74.68669             -200               0             -200               0
2.0033                 -2.189545       -43.47412         -30.7752        70.18678             -200               0             -200               0
2.0099                 -2.279123       -43.98742        -30.54045        65.65307             -200               0             -200               0
2.0165                 -2.372391       -44.50011        -30.31025        61.08702             -200               0             -200               0
2.0231                 -2.469421       -45.01153        -30.08474        56.49005             -200               0             -200               0
2.0297                 -2.570283       -45.52099        -29.86404        51.86359             -200               0             -200               0
2.0363                 -2.675045       -46.02784        -29.64827        47.20903             -200               0             -200               0
2.0429                 -2.783782       -46.53142        -29.43752        42.52775             -200               0             -200               0
2.0495                 -2.896562       -47.03109        -29.23187         37.8211             -200               0             -200               0
2.05611                -3.013463       -47.52623        -29.03141        33.09039             -200               0             -200               0
2.06271                -3.134562       -48.01621         -28.8362        28.33691             -200               0             -200               0
2.06931                -3.259946       -48.50045        -28.64629        23.56191             -200               0             -200               0
2.07591                -3.389709       -48.97833        -28.46172         18.7666             -200               0             -200               0
2.08251                -3.523953       -49.44925        -28.28255        13.95216             -200               0             -200               0
2.08911                -3.662792        -49.9126        -28.10879        9.119759             -200               0             -200               0
2.09571                -3.806351       -50.36776        -27.94048        4.270496             -200               0             -200               0
2.10231                -3.954768       -50.81407        -27.77764      -0.5945358             -200               0             -200               0
2.10891                  -4.1082       -51.25083        -27.62028       -5.474285             -200               0             -200               0
2.11551                -4.266818        -51.6773        -27.46841       -10.36773             -200               0             -200               0
2.12211                -4.430814       -52.09264        -27.32205       -15.27388             -200               0             -200               0
2.12871                -4.600397       -52.49592         -27.1812       -20.19177             -200               0             -200               0
2.13531                  -4.7758       -52.88612        -27.04586       -25.12046             -200               0             -200               0
2.14191                -4.957274       -53.26205        -26.91603       -30.05903             -200               0             -200               0
2.14851                -5.145097       -53.62238         -26.7917        -35.0066             -200               0             -200               0
2.15512                -5.339568       -53.96556        -26.67288        -39.9623             -200               0             -200               0
2.16172                -5.541008       -54.28982        -26.55954       -44.92529             -200               0             -200               0
2.16832                -5.749766       -54.59313        -26.45169       -49.89473             -200               0             -200               0
2.17492                -5.966214       -54.87312        -26.34931       -54.86983             -200               0             -200               0
2.18152                -6.190743       -55.12711         -26.2524       -59.84978             -200               0             -200               0
2.18812                -6.423768       -55.35196        -26.16093       -64.83382             -200               0             -200               0
2.19472                -6.665724       -55.54412        -26.07489       -69.82118             -200               0             -200               0
2.20132                -6.917065       -55.69947        -25.99428       -74.81112             -200               0             -200               0
2.20792                -7.178254       -55.81331        -25.91906        -79.8029             -200               0             -200               0
2.21452                -7.449768       -55.88024        -25.84923       -84.79579             -200               0             -200               0
2.22112                -7.732081       -55.89408        -25.78476       -89.78908             -200               0             -200               0
2.22772                -8.025664       -55.84775        -25.72565       -94.78205             -200               0             -200               0
2.23432                -8.330966       -55.73317        -25.67186       -99.77401             -200               0             -200               0
2.24092                -8.648403       -55.54112        -25.62338       -104.7643             -200               0             -200               0
2.24752                 -8.97833       -55.26103        -25.58019       -109.7521             -200               0             -200               0
2.25413                -9.321021       -54.88089        -25.54227       -114.7369             -200               0             -200               0
2.26073                -9.676623       -54.38702        -25.50958       -119.7179             -200               0             -200               0
2.26733                -10.04511       -53.76386        -25.48212       -124.6944             -200               0             -200               0
2.27393                -10.42622       -52.99386        -25.45985       -129.6658             -200               0             -200               0
2.28053                -10.81936       -52.05726        -25.44276       -134.6314             -200               0             -200               0
2.28713                 -11.2235       -50.93208         -25.4308       -139.5905             -200               0             -200               0
2.29373                -11.63703       -49.59407        -25.42396       -144.5424             -200               0             -200               0