! TOUCHSTONE file generated by CST MICROWAVE STUDIO
! Date and time: Sat Mar  8 13:55:26 2025
! Project name: non_fractured.cst
! Parameters = {B=2.5; D=160; F=15; Feed=2.85625; L=100; M=20; R=0.384908; S=2.5; Theta=270; length=57.125; wave=114.25}
! Header version: 2024
! Port assignment regex: !\s*Touchstone port\s*([0-9]+)\s*=\s*(CST MWS port|CST DES external port|CST DES block port)\s*(.+)\s* \(\"(.*)\"\)(\s*mode\s*([0-9]+))?.*
! Touchstone port assignment:
! Touchstone port 1 = CST MWS port 1 ("")
! Touchstone port 2 = CST MWS port 2 ("")
# GHz S DB R 50
1                    -0.01876337       -9.744897        -68.63921       -148.3162             -200               0             -200               0
1.0066               -0.01957966       -9.833304        -68.40951       -152.1536             -200               0             -200               0
1.0132               -0.02044321       -9.922088        -68.19832       -155.9365             -200               0             -200               0
1.0198               -0.02134853       -10.01123        -68.00452        -159.656             -200               0             -200               0
1.0264               -0.02229001       -10.10072        -67.82696       -163.3033             -200               0             -200               0
1.033                -0.02326187       -10.19054        -67.66436       -166.8698             -200               0             -200               0
1.0396               -0.02425698       -10.28071        -67.51538        -170.347             -200               0             -200               0
1.0462               -0.02526965       -10.37122         -67.3785       -173.7269             -200               0             -200               0
1.05281              -0.02629233       -10.46209         -67.2521       -177.0016             -200               0             -200               0
1.05941              -0.02732039       -10.55336        -67.13436        179.8359             -200               0             -200               0
1.06601               -0.0283473       -10.64505        -67.02327         176.792             -200               0             -200               0
1.07261              -0.02936801        -10.7372        -66.91665        173.8721             -200               0             -200               0
1.07921              -0.03037877       -10.82985         -66.8121        171.0799             -200               0             -200               0
1.08581              -0.03137609       -10.92306        -66.70705        168.4174             -200               0             -200               0
1.09241              -0.03235799       -11.01689        -66.59878        165.8845             -200               0             -200               0
1.09901              -0.03332333       -11.11138        -66.48446        163.4784             -200               0             -200               0
1.10561              -0.03427307        -11.2066        -66.36122        161.1934             -200               0             -200               0
1.11221                -0.035207       -11.30261        -66.22627        159.0204             -200               0             -200               0
1.11881              -0.03613014       -11.39946        -66.07696        156.9473             -200               0             -200               0
1.12541              -0.03704549       -11.49721        -65.91095        154.9585             -200               0             -200               0
1.13201              -0.03795764       -11.59592        -65.72628        153.0356             -200               0             -200               0
1.13861              -0.03887297       -11.69562        -65.52151        151.1581             -200               0             -200               0
1.14521              -0.03979897       -11.79635         -65.2958        149.3037             -200               0             -200               0
1.15182              -0.04074231       -11.89816        -65.04895        147.4497             -200               0             -200               0
1.15842              -0.04171199       -12.00106         -64.7814        145.5736             -200               0             -200               0
1.16502              -0.04271562       -12.10508        -64.49417        143.6545             -200               0             -200               0
1.17162              -0.04376166       -12.21022        -64.18883        141.6736             -200               0             -200               0
1.17822              -0.04485881       -12.31649        -63.86737        139.6147             -200               0             -200               0
1.18482              -0.04601489       -12.42387        -63.53206         137.465             -200               0             -200               0
1.19142               -0.0472366       -12.53237        -63.18536         135.215             -200               0             -200               0
1.19802              -0.04853122       -12.64194        -62.82978        132.8581             -200               0             -200               0
1.20462              -0.04990525       -12.75258        -62.46783         130.391             -200               0             -200               0
1.21122              -0.05136168       -12.86425        -62.10187         127.813             -200               0             -200               0
1.21782              -0.05290528       -12.97691        -61.73413        125.1255             -200               0             -200               0
1.22442              -0.05453766       -13.09053        -61.36663        122.3318             -200               0             -200               0
1.23102              -0.05626106       -13.20508        -61.00115        119.4368             -200               0             -200               0
1.23762              -0.05807397       -13.32052        -60.63929        116.4461             -200               0             -200               0
1.24422               -0.0599755       -13.43681         -60.2824        113.3665             -200               0             -200               0
1.25083              -0.06196237       -13.55394        -59.93162        110.2048             -200               0             -200               0
1.25743              -0.06403114       -13.67186        -59.58792        106.9686             -200               0             -200               0
1.26403              -0.06617716       -13.79057        -59.25209        103.6652             -200               0             -200               0
1.27063              -0.06839495       -13.91006        -58.92474        100.3021             -200               0             -200               0
1.27723              -0.07067865       -14.03032        -58.60636        96.88664             -200               0             -200               0
1.28383              -0.07302156       -14.15136        -58.29731        93.42612             -200               0             -200               0
1.29043              -0.07541673       -14.27319        -57.99784        89.92753             -200               0             -200               0
1.29703              -0.07785717       -14.39585         -57.7081        86.39766             -200               0             -200               0
1.30363              -0.08033764       -14.51936        -57.42816        82.84307             -200               0             -200               0
1.31023              -0.08285141       -14.64377          -57.158        79.27006             -200               0             -200               0
1.31683              -0.08539364       -14.76914        -56.89753        75.68471             -200               0             -200               0
1.32343              -0.08795996       -14.89551         -56.6466        72.09284             -200               0             -200               0
1.33003              -0.09054799       -15.02296        -56.40502        68.50002             -200               0             -200               0
1.33663              -0.09315441       -15.15156         -56.1725         64.9116             -200               0             -200               0
1.34323              -0.09578001       -15.28138        -55.94873         61.3327             -200               0             -200               0
1.34984              -0.09842428       -15.41249        -55.73334        57.76818             -200               0             -200               0
1.35644               -0.1010903       -15.54499        -55.52591        54.22266             -200               0             -200               0
1.36304               -0.1037831       -15.67894        -55.32596        50.70051             -200               0             -200               0
1.36964               -0.1065045       -15.81443        -55.13297        47.20584             -200               0             -200               0
1.37624               -0.1092633       -15.95151        -54.94637        43.74246             -200               0             -200               0
1.38284               -0.1120659       -16.09027        -54.76553        40.31387             -200               0             -200               0
1.38944               -0.1149219       -16.23076        -54.58978        36.92321             -200               0             -200               0
1.39604               -0.1178392       -16.37304        -54.41841        33.57325             -200               0             -200               0
1.40264               -0.1208294       -16.51715        -54.25066        30.26634             -200               0             -200               0
1.40924               -0.1239016       -16.66313        -54.08573        27.00434             -200               0             -200               0
1.41584               -0.1270676       -16.81102        -53.92278        23.78861             -200               0             -200               0
1.42244               -0.1303374       -16.96083        -53.76095        20.61995             -200               0             -200               0
1.42904               -0.1337215       -17.11258        -53.59935        17.49855             -200               0             -200               0
1.43564               -0.1372297       -17.26628         -53.4371        14.42393             -200               0             -200               0
1.44224               -0.1408712       -17.42192        -53.27328        11.39497             -200               0             -200               0
1.44884               -0.1446533        -17.5795        -53.10704        8.409829             -200               0             -200               0
1.45545               -0.1485834       -17.73901        -52.93753         5.46595             -200               0             -200               0
1.46205               -0.1526676       -17.90044        -52.76394        2.560099             -200               0             -200               0
1.46865               -0.1569104       -18.06377        -52.58555      -0.3116247             -200               0             -200               0
1.47525               -0.1613146       -18.22898        -52.40168       -3.153731             -200               0             -200               0
1.48185               -0.1658834       -18.39608        -52.21179       -5.971263             -200               0             -200               0
1.48845               -0.1706162       -18.56504        -52.01541       -8.769703             -200               0             -200               0
1.49505               -0.1755122       -18.73588        -51.81221       -11.55486             -200               0             -200               0
1.50165               -0.1805709       -18.90859        -51.60198       -14.33275             -200               0             -200               0
1.50825               -0.1857893       -19.08318        -51.38461       -17.10945             -200               0             -200               0
1.51485               -0.1911639        -19.2597        -51.16016       -19.89097             -200               0             -200               0
1.52145               -0.1966918       -19.43815        -50.92879       -22.68313             -200               0             -200               0
1.52805               -0.2023687       -19.61861        -50.69076       -25.49141             -200               0             -200               0
1.53465               -0.2081911       -19.80112        -50.44646       -28.32088             -200               0             -200               0
1.54125               -0.2141564       -19.98577        -50.19634       -31.17609             -200               0             -200               0
1.54785               -0.2202608       -20.17262        -49.94095       -34.06102             -200               0             -200               0
1.55446               -0.2265038       -20.36178        -49.68088       -36.97899             -200               0             -200               0
1.56106               -0.2328848       -20.55337        -49.41675       -39.93271             -200               0             -200               0
1.56766               -0.2394061       -20.74748        -49.14923       -42.92422             -200               0             -200               0
1.57426               -0.2460704       -20.94427        -48.87896       -45.95492             -200               0             -200               0
1.58086               -0.2528834       -21.14385        -48.60661       -49.02563             -200               0             -200               0
1.58746               -0.2598518       -21.34636         -48.3328       -52.13656             -200               0             -200               0
1.59406               -0.2669865       -21.55195        -48.05815       -55.28746             -200               0             -200               0
1.60066               -0.2742994       -21.76077        -47.78323       -58.47758             -200               0             -200               0
1.60726               -0.2818055       -21.97295        -47.50856       -61.70581             -200               0             -200               0
1.61386               -0.2895216       -22.18864        -47.23462       -64.97064             -200               0             -200               0
1.62046               -0.2974679       -22.40798        -46.96184       -68.27034             -200               0             -200               0
1.62706                -0.305665       -22.63108         -46.6906       -71.60292             -200               0             -200               0
1.63366               -0.3141369       -22.85808        -46.42122        -74.9662             -200               0             -200               0
1.64026                -0.322909       -23.08908        -46.15396       -78.35789             -200               0             -200               0
1.64686               -0.3320084       -23.32417        -45.88906       -81.77563             -200               0             -200               0
1.65347               -0.3414628       -23.56346        -45.62666       -85.21697             -200               0             -200               0
1.66007               -0.3513037         -23.807         -45.3669        -88.6795             -200               0             -200               0
1.66667               -0.3615578       -24.05486        -45.10984        -92.1608             -200               0             -200               0
1.67327                -0.372257       -24.30708         -44.8555        -95.6585             -200               0             -200               0
1.67987               -0.3834316        -24.5637        -44.60387       -99.17035             -200               0             -200               0
1.68647               -0.3951103       -24.82473         -44.3549       -102.6942             -200               0             -200               0
1.69307               -0.4073227       -25.09019        -44.10849       -106.2279             -200               0             -200               0
1.69967               -0.4200972       -25.36007        -43.86452       -109.7696             -200               0             -200               0
1.70627               -0.4334618       -25.63437        -43.62282       -113.3176             -200               0             -200               0
1.71287                -0.447442       -25.91307        -43.38323       -116.8703             -200               0             -200               0
1.71947               -0.4620629       -26.19615        -43.14552       -120.4263             -200               0             -200               0
1.72607               -0.4773475        -26.4836        -42.90948       -123.9844             -200               0             -200               0
1.73267                -0.493317        -26.7754        -42.67484       -127.5438             -200               0             -200               0
1.73927               -0.5099948       -27.07152        -42.44137       -131.1036             -200               0             -200               0
1.74587               -0.5273986       -27.37196        -42.20879       -134.6634             -200               0             -200               0
1.75248               -0.5455466       -27.67672        -41.97681       -138.2228             -200               0             -200               0
1.75908               -0.5644576        -27.9858        -41.74517       -141.7819             -200               0             -200               0
1.76568                -0.584149       -28.29923        -41.51359       -145.3409             -200               0             -200               0
1.77228               -0.6046381       -28.61704        -41.28179       -148.9001             -200               0             -200               0
1.77888               -0.6259422       -28.93926        -41.04953       -152.4604             -200               0             -200               0
1.78548               -0.6480783       -29.26598        -40.81655       -156.0225             -200               0             -200               0
1.79208               -0.6710688       -29.59726        -40.58263       -159.5876             -200               0             -200               0
1.79868               -0.6949336       -29.93319        -40.34756       -163.1568             -200               0             -200               0
1.80528               -0.7196961        -30.2739        -40.11115       -166.7318             -200               0             -200               0
1.81188               -0.7453821       -30.61951        -39.87326        -170.314             -200               0             -200               0
1.81848               -0.7720212       -30.97014        -39.63376       -173.9053             -200               0             -200               0
1.82508               -0.7996458       -31.32595        -39.39256       -177.5073             -200               0             -200               0
1.83168               -0.8282936       -31.68709        -39.14959        178.8779             -200               0             -200               0
1.83828                -0.858005       -32.05374        -38.90483        175.2485             -200               0             -200               0
1.84488               -0.8888253       -32.42606        -38.65829        171.6025             -200               0             -200               0
1.85149               -0.9208066        -32.8042        -38.41001         167.938             -200               0             -200               0
1.85809               -0.9540041       -33.18835        -38.16006        164.2531             -200               0             -200               0
1.86469               -0.9884786       -33.57865        -37.90855        160.5458             -200               0             -200               0
1.87129                -1.024297       -33.97525        -37.65562        156.8146             -200               0             -200               0
1.87789                -1.061531       -34.37829        -37.40142        153.0577             -200               0             -200               0
1.88449                -1.100258       -34.78786        -37.14613        149.2736             -200               0             -200               0
1.89109                -1.140561       -35.20408        -36.88997         145.461             -200               0             -200               0
1.89769                -1.182525       -35.62699        -36.63315        141.6186             -200               0             -200               0
1.90429                -1.226244       -36.05663        -36.37592        137.7453             -200               0             -200               0
1.91089                -1.271812       -36.49302        -36.11851        133.8403             -200               0             -200               0
1.91749                -1.319332       -36.93611         -35.8612        129.9027             -200               0             -200               0
1.92409                -1.368905       -37.38585        -35.60424        125.9321             -200               0             -200               0
1.93069                -1.420639       -37.84213         -35.3479        121.9279             -200               0             -200               0
1.93729                -1.474644       -38.30479        -35.09244        117.8898             -200               0             -200               0
1.94389                -1.531031       -38.77367        -34.83813        113.8179             -200               0             -200               0
1.9505                 -1.589913       -39.24852        -34.58523        109.7119             -200               0             -200               0
1.9571                 -1.651407       -39.72908        -34.33398        105.5722             -200               0             -200               0
1.9637                  -1.71563       -40.21504        -34.08465        101.3989             -200               0             -200               0
1.9703                 -1.782695       -40.70604        -33.83746        97.19233             -200               0             -200               0
1.9769                 -1.852722       -41.20167        -33.59264        92.95307             -200               0             -200               0
1.9835                 -1.925828       -41.70153        -33.35041        88.68161             -200               0             -200               0
1.9901                 -2.002129       -42.20511        -33.11098        84.37858             -200               0             -200               0
1.9967                 -2.081744       -42.71193        -32.87454        80.04466             -200               0             -200               0
2.0033                 -2.164787       -43.22142        -32.64128        75.68062             -200               0             -200               0
2.0099                 -2.251376       -43.73302        -32.41137        71.28725             -200               0             -200               0
2.0165                 -2.341626       -44.24608        -32.18497        66.86539             -200               0             -200               0
2.0231                 -2.435652       -44.75999        -31.96224        62.41593             -200               0             -200               0
2.0297                  -2.53357       -45.27406         -31.7433        57.93976             -200               0             -200               0
2.0363                 -2.635495       -45.78757         -31.5283         53.4378             -200               0             -200               0
2.0429                 -2.741545       -46.29977        -31.31735        48.91102             -200               0             -200               0
2.0495                 -2.851836       -46.80993        -31.11056        44.36035             -200               0             -200               0
2.05611                -2.966486       -47.31722        -30.90802        39.78674             -200               0             -200               0
2.06271                 -3.08562       -47.82081        -30.70983        35.19118             -200               0             -200               0
2.06931                -3.209357       -48.31984        -30.51608        30.57461             -200               0             -200               0
2.07591                -3.337826       -48.81342        -30.32683          25.938             -200               0             -200               0
2.08251                -3.471159       -49.30057        -30.14215        21.28229             -200               0             -200               0
2.08911                -3.609491       -49.78034        -29.96211        16.60842             -200               0             -200               0
2.09571                -3.752962       -50.25167        -29.78676        11.91735             -200               0             -200               0
2.10231                -3.901723       -50.71347        -29.61614        7.209974             -200               0             -200               0
2.10891                -4.055928       -51.16457         -29.4503        2.487223             -200               0             -200               0
2.11551                 -4.21574       -51.60375        -29.28927       -2.250012             -200               0             -200               0
2.12211                -4.381331       -52.02966        -29.13309       -7.000839             -200               0             -200               0
2.12871                -4.552882        -52.4409        -28.98178       -11.76439             -200               0             -200               0
2.13531                -4.730586       -52.83591        -28.83536        -16.5398             -200               0             -200               0
2.14191                -4.914644       -53.21303        -28.69387       -21.32623             -200               0             -200               0
2.14851                -5.105271       -53.57041         -28.5573       -26.12284             -200               0             -200               0
2.15512                -5.302692       -53.90608        -28.42568       -30.92883             -200               0             -200               0
2.16172                -5.507144       -54.21783          -28.299       -35.74337             -200               0             -200               0
2.16832                -5.718876       -54.50323        -28.17729       -40.56567             -200               0             -200               0
2.17492                -5.938148       -54.75959        -28.06054       -45.39496             -200               0             -200               0
2.18152                -6.165229       -54.98392        -27.94875       -50.23047             -200               0             -200               0
2.18812                -6.400398        -55.1729        -27.84191       -55.07145             -200               0             -200               0
2.19472                 -6.64394       -55.32282        -27.74004       -59.91713             -200               0             -200               0
2.20132                -6.896146       -55.42953        -27.64312       -64.76678             -200               0             -200               0
2.20792                -7.157307       -55.48838        -27.55114       -69.61968             -200               0             -200               0
2.21452                -7.427703       -55.49416        -27.46409       -74.47512             -200               0             -200               0
2.22112                -7.707609       -55.44103        -27.38196       -79.33237             -200               0             -200               0
2.22772                -7.997274       -55.32241        -27.30474       -84.19074             -200               0             -200               0
2.23432                -8.296913       -55.13092        -27.23241       -89.04952             -200               0             -200               0
2.24092                -8.606694       -54.85827        -27.16495       -93.90804             -200               0             -200               0
2.24752                 -8.92671       -54.49517        -27.10235       -98.76561             -200               0             -200               0
2.25413                -9.256963       -54.03116        -27.04458       -103.6216             -200               0             -200               0
2.26073                -9.597318       -53.45458        -26.99163       -108.4752             -200               0             -200               0
2.26733                 -9.94747       -52.75243        -26.94346       -113.3259             -200               0             -200               0
2.27393                -10.30688       -51.91032        -26.90006       -118.1729             -200               0             -200               0
2.28053                -10.67473       -50.91239        -26.86139       -123.0156             -200               0             -200               0
2.28713                 -11.0498       -49.74145        -26.82743       -127.8534             -200               0             -200               0
2.29373                 -11.4304       -48.37906        -26.79814       -132.6856             -200               0             -200               0