! TOUCHSTONE file generated by CST MICROWAVE STUDIO
! Date and time: Sat Mar  8 13:55:46 2025
! Project name: non_fractured.cst
! Parameters = {B=2.5; D=160; F=5; Feed=2.85625; L=100; M=30; R=0.384908; S=1.5; Theta=180; length=57.125; wave=114.25}
! Header version: 2024
! Port assignment regex: !\s*Touchstone port\s*([0-9]+)\s*=\s*(CST MWS port|CST DES external port|CST DES block port)\s*(.+)\s* \(\"(.*)\"\)(\s*mode\s*([0-9]+))?.*
! Touchstone port assignment:
! Touchstone port 1 = CST MWS port 1 ("")
! Touchstone port 2 = CST MWS port 2 ("")
# GHz S DB R 50
1                    -0.01836842       -9.757349        -69.79319       -132.2344             -200               0             -200               0
1.0066               -0.01925374       -9.846821        -69.24402        -136.804             -200               0             -200               0
1.0132               -0.02021358       -9.936578        -68.74199       -141.4399             -200               0             -200               0
1.0198               -0.02124028       -10.02657        -68.28366       -146.1206             -200               0             -200               0
1.0264               -0.02232391       -10.11675        -67.86611       -150.8282             -200               0             -200               0
1.033                -0.02345465       -10.20709        -67.48684       -155.5476             -200               0             -200               0
1.0396               -0.02462089       -10.29757        -67.14375       -160.2653             -200               0             -200               0
1.0462               -0.02581104       -10.38818        -66.83501       -164.9694             -200               0             -200               0
1.05281              -0.02701365       -10.47895        -66.55907       -169.6486             -200               0             -200               0
1.05941              -0.02821647       -10.56988        -66.31458       -174.2922             -200               0             -200               0
1.06601              -0.02940826       -10.66102        -66.10036       -178.8898             -200               0             -200               0
1.07261              -0.03057836       -10.75242        -65.91537        176.5691             -200               0             -200               0
1.07921              -0.03171747       -10.84413        -65.75867        172.0955             -200               0             -200               0
1.08581              -0.03281676       -10.93624        -65.62938        167.7004             -200               0             -200               0
1.09241              -0.03387035       -11.02882        -65.52667        163.3958             -200               0             -200               0
1.09901               -0.0348751       -11.12197        -65.44968        159.1945             -200               0             -200               0
1.10561              -0.03582723       -11.21578         -65.3975        155.1102             -200               0             -200               0
1.11221              -0.03672645       -11.31034        -65.36913         151.158             -200               0             -200               0
1.11881              -0.03757502       -11.40576        -65.36337        147.3541             -200               0             -200               0
1.12541              -0.03837819       -11.50212        -65.37879        143.7161             -200               0             -200               0
1.13201              -0.03914099       -11.59953         -65.4136         140.263             -200               0             -200               0
1.13861              -0.03987209       -11.69807        -65.46555         137.015             -200               0             -200               0
1.14521              -0.04058155        -11.7978        -65.53181        133.9931             -200               0             -200               0
1.15182              -0.04128166        -11.8988        -65.60882        131.2186             -200               0             -200               0
1.15842              -0.04198366       -12.00112        -65.69214        128.7119             -200               0             -200               0
1.16502              -0.04270271       -12.10479        -65.77634        126.4911             -200               0             -200               0
1.17162              -0.04345241       -12.20985        -65.85488        124.5701             -200               0             -200               0
1.17822              -0.04424668        -12.3163        -65.92016        122.9554             -200               0             -200               0
1.18482               -0.0450996       -12.42414        -65.96369        121.6436             -200               0             -200               0
1.19142              -0.04602615       -12.53335        -65.97642        120.6181             -200               0             -200               0
1.19802              -0.04703802        -12.6439         -65.9494        119.8466             -200               0             -200               0
1.20462              -0.04814596       -12.75575        -65.87456        119.2804             -200               0             -200               0
1.21122              -0.04936093       -12.86884        -65.74563        118.8559             -200               0             -200               0
1.21782              -0.05069063       -12.98311        -65.55896        118.4986             -200               0             -200               0
1.22442              -0.05214057        -13.0985        -65.31398        118.1294             -200               0             -200               0
1.23102               -0.0537147       -13.21492        -65.01334        117.6723             -200               0             -200               0
1.23762              -0.05541441       -13.33231        -64.66243        117.0606             -200               0             -200               0
1.24422              -0.05723868       -13.45058        -64.26862         116.242             -200               0             -200               0
1.25083              -0.05918519       -13.56968         -63.8404        115.1808             -200               0             -200               0
1.25743              -0.06124836       -13.68953        -63.38649        113.8569             -200               0             -200               0
1.26403              -0.06342072       -13.81009        -62.91519        112.2645             -200               0             -200               0
1.27063              -0.06569346        -13.9313        -62.43394        110.4084             -200               0             -200               0
1.27723              -0.06805499       -14.05313        -61.94911        108.3013             -200               0             -200               0
1.28383              -0.07049608       -14.17558        -61.46596        105.9611             -200               0             -200               0
1.29043              -0.07300196       -14.29862        -60.98868        103.4083             -200               0             -200               0
1.29703              -0.07556147       -14.42228        -60.52055        100.6645             -200               0             -200               0
1.30363              -0.07816008       -14.54659          -60.064        97.75148             -200               0             -200               0
1.31023              -0.08078694       -14.67159        -59.62083        94.69021             -200               0             -200               0
1.31683              -0.08342912       -14.79735         -59.1923        91.50049             -200               0             -200               0
1.32343              -0.08607681       -14.92395        -58.77923         88.2008             -200               0             -200               0
1.33003              -0.08872151       -15.05146        -58.38211        84.80823             -200               0             -200               0
1.33663              -0.09135528       -15.18001        -58.00115        81.33846             -200               0             -200               0
1.34323              -0.09397392       -15.30971        -57.63639        77.80586             -200               0             -200               0
1.34984              -0.09657468       -15.44066        -57.28765        74.22363             -200               0             -200               0
1.35644              -0.09915743       -15.57301        -56.95468        70.60384             -200               0             -200               0
1.36304               -0.1017252       -15.70687        -56.63707        66.95764             -200               0             -200               0
1.36964               -0.1042835       -15.84238        -56.33436        63.29526             -200               0             -200               0
1.37624               -0.1068404       -15.97966        -56.04601        59.62618             -200               0             -200               0
1.38284                -0.109406       -16.11882        -55.77138        55.95918             -200               0             -200               0
1.38944               -0.1119927       -16.25998        -55.50983        52.30243             -200               0             -200               0
1.39604               -0.1146166       -16.40323         -55.2606         48.6635             -200               0             -200               0
1.40264               -0.1172935       -16.54866        -55.02291         45.0494             -200               0             -200               0
1.40924               -0.1200401       -16.69634         -54.7959        41.46664             -200               0             -200               0
1.41584                -0.122877       -16.84632        -54.57868         37.9212             -200               0             -200               0
1.42244               -0.1258235       -16.99865        -54.37026        34.41851             -200               0             -200               0
1.42904               -0.1288982       -17.15333        -54.16962        30.96342             -200               0             -200               0
1.43564               -0.1321206       -17.31038        -53.97567        27.56019             -200               0             -200               0
1.44224                -0.135509       -17.46978        -53.78725        24.21239             -200               0             -200               0
1.44884               -0.1390814       -17.63151        -53.60315        20.92286             -200               0             -200               0
1.45545                -0.142853       -17.79552        -53.42213        17.69363             -200               0             -200               0
1.46205               -0.1468375       -17.96176        -53.24287        14.52582             -200               0             -200               0
1.46865               -0.1510467       -18.13018        -53.06406         11.4196             -200               0             -200               0
1.47525               -0.1554894        -18.3007        -52.88437         8.37407             -200               0             -200               0
1.48185               -0.1601738       -18.47326        -52.70248        5.387263             -200               0             -200               0
1.48845               -0.1651024       -18.64778        -52.51709        2.456062             -200               0             -200               0
1.49505               -0.1702769        -18.8242        -52.32699      -0.4237724             -200               0             -200               0
1.50165               -0.1756975       -19.00246        -52.13104       -3.257587             -200               0             -200               0
1.50825               -0.1813598        -19.1825        -51.92824       -6.051744             -200               0             -200               0
1.51485               -0.1872581       -19.36428        -51.71771       -8.813518             -200               0             -200               0
1.52145               -0.1933859       -19.54777        -51.49876       -11.55092             -200               0             -200               0
1.52805               -0.1997333       -19.73297         -51.2709       -14.27252             -200               0             -200               0
1.53465               -0.2062904       -19.91987        -51.03381       -16.98721             -200               0             -200               0
1.54125                -0.213047       -20.10852        -50.78741       -19.70394             -200               0             -200               0
1.54785                -0.219992       -20.29895         -50.5318       -22.43154             -200               0             -200               0
1.55446               -0.2271152       -20.49124        -50.26731       -25.17841             -200               0             -200               0
1.56106                -0.234406       -20.68547        -49.99441       -27.95237             -200               0             -200               0
1.56766               -0.2418591       -20.88176        -49.71375       -30.76047             -200               0             -200               0
1.57426               -0.2494652       -21.08024        -49.42608       -33.60883             -200               0             -200               0
1.58086               -0.2572219       -21.28105        -49.13229       -36.50258             -200               0             -200               0
1.58746               -0.2651276       -21.48434        -48.83329       -39.44584             -200               0             -200               0
1.59406               -0.2731855       -21.69031        -48.53006       -42.44163             -200               0             -200               0
1.60066               -0.2814005       -21.89912        -48.22358       -45.49202             -200               0             -200               0
1.60726               -0.2897817       -22.11097        -47.91482       -48.59808             -200               0             -200               0
1.61386               -0.2983403       -22.32604        -47.60471       -51.76001             -200               0             -200               0
1.62046               -0.3070954       -22.54453        -47.29416       -54.97726             -200               0             -200               0
1.62706                -0.316066       -22.76661        -46.98398       -58.24855             -200               0             -200               0
1.63366               -0.3252767       -22.99247        -46.67494       -61.57206             -200               0             -200               0
1.64026               -0.3347541       -23.22226        -46.36774       -64.94545             -200               0             -200               0
1.64686               -0.3445292       -23.45613        -46.06297       -68.36603             -200               0             -200               0
1.65347               -0.3546342       -23.69422        -45.76119       -71.83078             -200               0             -200               0
1.66007               -0.3651057       -23.93664        -45.46284       -75.33644             -200               0             -200               0
1.66667               -0.3759786       -24.18347         -45.1683       -78.87963             -200               0             -200               0
1.67327               -0.3872923       -24.43478        -44.87789       -82.45682             -200               0             -200               0
1.67987               -0.3990865       -24.69061        -44.59184       -86.06448             -200               0             -200               0
1.68647               -0.4113986       -24.95099        -44.31033       -89.69906             -200               0             -200               0
1.69307               -0.4242671       -25.21591        -44.03347       -93.35702             -200               0             -200               0
1.69967               -0.4377303       -25.48534         -43.7613       -97.03491             -200               0             -200               0
1.70627               -0.4518247       -25.75925        -43.49384       -100.7294             -200               0             -200               0
1.71287               -0.4665821       -26.03757        -43.23102       -104.4372             -200               0             -200               0
1.71947               -0.4820371       -26.32022        -42.97274       -108.1553             -200               0             -200               0
1.72607               -0.4982161       -26.60713        -42.71886       -111.8806             -200               0             -200               0
1.73267               -0.5151468       -26.89818         -42.4692       -115.6105             -200               0             -200               0
1.73927               -0.5328524        -27.1933        -42.22353       -119.3424             -200               0             -200               0
1.74587               -0.5513523       -27.49238        -41.98158        -123.074             -200               0             -200               0
1.75248               -0.5706633       -27.79532        -41.74307       -126.8031             -200               0             -200               0
1.75908                  -0.5908       -28.10204        -41.50768       -130.5278             -200               0             -200               0
1.76568                -0.611773       -28.41248        -41.27506       -134.2465             -200               0             -200               0
1.77228               -0.6335916       -28.72657        -41.04484       -137.9579             -200               0             -200               0
1.77888               -0.6562642       -29.04429        -40.81664        -141.661             -200               0             -200               0
1.78548               -0.6797962        -29.3656        -40.59005       -145.3548             -200               0             -200               0
1.79208                -0.704193       -29.69054        -40.36468        -149.039             -200               0             -200               0
1.79868               -0.7294593       -30.01915         -40.1401       -152.7135             -200               0             -200               0
1.80528               -0.7556017       -30.35147         -39.9159       -156.3783             -200               0             -200               0
1.81188                -0.782627       -30.68762        -39.69167       -160.0339             -200               0             -200               0
1.81848               -0.8105457       -31.02772        -39.46701       -163.6812             -200               0             -200               0
1.82508               -0.8393693       -31.37193        -39.24154       -167.3213             -200               0             -200               0
1.83168               -0.8691141       -31.72041        -39.01489       -170.9555             -200               0             -200               0
1.83828               -0.8998011       -32.07337        -38.78674       -174.5856             -200               0             -200               0
1.84488               -0.9314572       -32.43105        -38.55678       -178.2134             -200               0             -200               0
1.85149               -0.9641128       -32.79366        -38.32474        178.1589             -200               0             -200               0
1.85809               -0.9978053       -33.16148         -38.0904        174.5288             -200               0             -200               0
1.86469                -1.032581       -33.53475        -37.85357        170.8939             -200               0             -200               0
1.87129                -1.068491       -33.91375        -37.61413        167.2515             -200               0             -200               0
1.87789                -1.105594       -34.29872        -37.37198        163.5989             -200               0             -200               0
1.88449                -1.143958       -34.68993        -37.12708        159.9333             -200               0             -200               0
1.89109                -1.183655        -35.0876        -36.87946        156.2518             -200               0             -200               0
1.89769                -1.224769       -35.49196        -36.62916        152.5517             -200               0             -200               0
1.90429                -1.267388       -35.90318         -36.3763        148.8305             -200               0             -200               0
1.91089                -1.311608       -36.32144        -36.12103        145.0854             -200               0             -200               0
1.91749                 -1.35753       -36.74685        -35.86354        141.3142             -200               0             -200               0
1.92409                -1.405263        -37.1795        -35.60405        137.5146             -200               0             -200               0
1.93069                -1.454921       -37.61943        -35.34282        133.6845             -200               0             -200               0
1.93729                -1.506623       -38.06664        -35.08013        129.8222             -200               0             -200               0
1.94389                 -1.56049       -38.52105        -34.81629         125.926             -200               0             -200               0
1.9505                 -1.616649       -38.98255        -34.55162        121.9946             -200               0             -200               0
1.9571                 -1.675228         -39.451        -34.28646        118.0269             -200               0             -200               0
1.9637                  -1.73636       -39.92615        -34.02114         114.022             -200               0             -200               0
1.9703                 -1.800174       -40.40776        -33.75601        109.9792             -200               0             -200               0
1.9769                 -1.866807       -40.89549        -33.49141         105.898             -200               0             -200               0
1.9835                 -1.936389       -41.38897        -33.22768        101.7784             -200               0             -200               0
1.9901                 -2.009054       -41.88776        -32.96517        97.62006             -200               0             -200               0
1.9967                 -2.084936       -42.39139        -32.70418        93.42329             -200               0             -200               0
2.0033                 -2.164164       -42.89935        -32.44503        89.18834             -200               0             -200               0
2.0099                 -2.246869       -43.41107        -32.18802        84.91563             -200               0             -200               0
2.0165                 -2.333179       -43.92593        -31.93344        80.60573             -200               0             -200               0
2.0231                  -2.42322       -44.44332        -31.68156        76.25931             -200               0             -200               0
2.0297                 -2.517121       -44.96256        -31.43263        71.87716             -200               0             -200               0
2.0363                 -2.615003       -45.48292        -31.18688        67.46013             -200               0             -200               0
2.0429                 -2.716991       -46.00369        -30.94454        63.00914             -200               0             -200               0
2.0495                 -2.823209       -46.52412        -30.70583        58.52518             -200               0             -200               0
2.05611                 -2.93378       -47.04341        -30.47092        54.00928             -200               0             -200               0
2.06271                -3.048828       -47.56077        -30.23999         49.4625             -200               0             -200               0
2.06931                -3.168481       -48.07536        -30.01321        44.88594             -200               0             -200               0
2.07591                -3.292866       -48.58634        -29.79073        40.28071             -200               0             -200               0
2.08251                -3.422116       -49.09284        -29.57267        35.64793             -200               0             -200               0
2.08911                 -3.55637       -49.59395        -29.35917        30.98872             -200               0             -200               0
2.09571                -3.695772       -50.08875        -29.15032        26.30423             -200               0             -200               0
2.10231                 -3.84047       -50.57627        -28.94624        21.59556             -200               0             -200               0
2.10891                -3.990627        -51.0555        -28.74701        16.86385             -200               0             -200               0
2.11551                -4.146413        -51.5254         -28.5527        12.11017             -200               0             -200               0
2.12211                 -4.30801       -51.98482         -28.3634        7.335632             -200               0             -200               0
2.12871                -4.475611        -52.4326        -28.17917        2.541304             -200               0             -200               0
2.13531                 -4.64943       -52.86745        -28.00005       -2.271758             -200               0             -200               0
2.14191                -4.829691       -53.28797         -27.8261       -7.102517             -200               0             -200               0
2.14851                -5.016639       -53.69267        -27.65737       -11.94996             -200               0             -200               0
2.15512                -5.210538       -54.07986        -27.49389       -16.81308             -200               0             -200               0
2.16172                -5.411672       -54.44772        -27.33568       -21.69091             -200               0             -200               0
2.16832                -5.620347        -54.7942        -27.18278       -26.58248             -200               0             -200               0
2.17492                -5.836893       -55.11698        -27.03521       -31.48688             -200               0             -200               0
2.18152                 -6.06166        -55.4135        -26.89298       -36.40316             -200               0             -200               0
2.18812                -6.295027       -55.68083        -26.75612       -41.33044             -200               0             -200               0
2.19472                -6.537394       -55.91567        -26.62463       -46.26784             -200               0             -200               0
2.20132                -6.789187       -56.11425        -26.49852        -51.2145             -200               0             -200               0
2.20792                 -7.05085       -56.27229         -26.3778       -56.16957             -200               0             -200               0
2.21452                -7.322851       -56.38489        -26.26247       -61.13223             -200               0             -200               0
2.22112                -7.605671       -56.44647        -26.15252       -66.10165             -200               0             -200               0
2.22772                -7.899805       -56.45059        -26.04797       -71.07706             -200               0             -200               0
2.23432                -8.205746       -56.38989        -25.94881       -76.05765             -200               0             -200               0
2.24092                -8.523981       -56.25593        -25.85502       -81.04266             -200               0             -200               0
2.24752                 -8.85497       -56.03896        -25.76662       -86.03133             -200               0             -200               0
2.25413                -9.199126       -55.72782        -25.68358        -91.0229             -200               0             -200               0
2.26073                -9.556783       -55.30964         -25.6059       -96.01664             -200               0             -200               0
2.26733                -9.928152       -54.76964        -25.53356       -101.0118             -200               0             -200               0
2.27393                -10.31327       -54.09087        -25.46657       -106.0077             -200               0             -200               0
2.28053                -10.71193       -53.25397         -25.4049       -111.0036             -200               0             -200               0
2.28713                -11.12354       -52.23688        -25.34854       -115.9987             -200               0             -200               0
2.29373                -11.54704       -51.01477        -25.29748       -120.9925             -200               0             -200               0