! TOUCHSTONE file generated by CST MICROWAVE STUDIO
! Date and time: Sat Mar  8 13:54:50 2025
! Project name: non_fractured.cst
! Parameters = {B=2.5; D=160; F=15; Feed=2.85625; L=100; M=10; R=0.384908; S=2.5; Theta=180; length=57.125; wave=114.25}
! Header version: 2024
! Port assignment regex: !\s*Touchstone port\s*([0-9]+)\s*=\s*(CST MWS port|CST DES external port|CST DES block port)\s*(.+)\s* \(\"(.*)\"\)(\s*mode\s*([0-9]+))?.*
! Touchstone port assignment:
! Touchstone port 1 = CST MWS port 1 ("")
! Touchstone port 2 = CST MWS port 2 ("")
# GHz S DB R 50
1                    -0.01827044       -9.753555        -70.53613       -127.0384             -200               0             -200               0
1.0066                -0.0190027       -9.842411        -69.97514       -130.5955             -200               0             -200               0
1.0132               -0.01978833       -9.931721        -69.45465       -134.2946             -200               0             -200               0
1.0198               -0.02062464       -10.02146        -68.97255       -138.1011             -200               0             -200               0
1.0264               -0.02150786        -10.1116        -68.52679       -141.9866             -200               0             -200               0
1.033                -0.02243248       -10.20212        -68.11544       -145.9268             -200               0             -200               0
1.0396               -0.02339339       -10.29301        -67.73668       -149.9009             -200               0             -200               0
1.0462               -0.02438463       -10.38427        -67.38883       -153.8907             -200               0             -200               0
1.05281              -0.02539961        -10.4759        -67.07032         -157.88             -200               0             -200               0
1.05941              -0.02643207       -10.56791        -66.77967       -161.8539             -200               0             -200               0
1.06601              -0.02747644       -10.66032        -66.51546       -165.7986             -200               0             -200               0
1.07261              -0.02852593       -10.75314        -66.27633        -169.701             -200               0             -200               0
1.07921              -0.02957504       -10.84643        -66.06094       -173.5487             -200               0             -200               0
1.08581              -0.03061963       -10.94021        -65.86792       -177.3294             -200               0             -200               0
1.09241              -0.03165541       -11.03452        -65.69589         178.969             -200               0             -200               0
1.09901              -0.03267989       -11.12944        -65.54335        175.3584             -200               0             -200               0
1.10561              -0.03369052       -11.22499        -65.40872        171.8506             -200               0             -200               0
1.11221              -0.03468718       -11.32126        -65.29023        168.4574             -200               0             -200               0
1.11881              -0.03566966       -11.41828        -65.18594        165.1903             -200               0             -200               0
1.12541              -0.03663988       -11.51612        -65.09366        162.0604             -200               0             -200               0
1.13201              -0.03760019       -11.61483         -65.0109         159.078             -200               0             -200               0
1.13861              -0.03855564       -11.71448        -64.93489        156.2526             -200               0             -200               0
1.14521              -0.03951133       -11.81511         -64.8625        153.5917             -200               0             -200               0
1.15182              -0.04047205       -11.91676        -64.79028        151.1006             -200               0             -200               0
1.15842              -0.04144525       -12.01948        -64.71444        148.7819             -200               0             -200               0
1.16502              -0.04243811       -12.12329        -64.63096        146.6339             -200               0             -200               0
1.17162              -0.04345909       -12.22823        -64.53566        144.6509             -200               0             -200               0
1.17822              -0.04451568       -12.33431        -64.42434        142.8216             -200               0             -200               0
1.18482               -0.0456164       -12.44154          -64.293        141.1294             -200               0             -200               0
1.19142              -0.04676933       -12.54992        -64.13807         139.552             -200               0             -200               0
1.19802              -0.04798126       -12.65945        -63.95658        138.0624             -200               0             -200               0
1.20462              -0.04926091       -12.77012        -63.74645        136.6294             -200               0             -200               0
1.21122              -0.05061427        -12.8819        -63.50659        135.2196             -200               0             -200               0
1.21782              -0.05204537       -12.99478          -63.237        133.7987             -200               0             -200               0
1.22442              -0.05355961       -13.10872        -62.93872         132.334             -200               0             -200               0
1.23102              -0.05516005        -13.2237        -62.61377        130.7956             -200               0             -200               0
1.23762              -0.05684877       -13.33967        -62.26493        129.1582             -200               0             -200               0
1.24422              -0.05862677       -13.45662        -61.89551        127.4013             -200               0             -200               0
1.25083              -0.06049355        -13.5745        -61.50915        125.5103             -200               0             -200               0
1.25743              -0.06244846       -13.69329        -61.10958        123.4759             -200               0             -200               0
1.26403              -0.06448694       -13.81297        -60.70044        121.2935             -200               0             -200               0
1.27063              -0.06660647        -13.9335        -60.28516        118.9629             -200               0             -200               0
1.27723              -0.06880109       -14.05489        -59.86685        116.4873             -200               0             -200               0
1.28383              -0.07106615       -14.17712        -59.44827        113.8723             -200               0             -200               0
1.29043              -0.07339493        -14.3002         -59.0318        111.1256             -200               0             -200               0
1.29703              -0.07578205       -14.42415        -58.61946        108.2561             -200               0             -200               0
1.30363              -0.07821967       -14.54897        -58.21292        105.2734             -200               0             -200               0
1.31023               -0.0807031       -14.67471        -57.81354        102.1876             -200               0             -200               0
1.31683              -0.08322352        -14.8014        -57.42239        99.00865             -200               0             -200               0
1.32343              -0.08577867        -14.9291        -57.04031        95.74661             -200               0             -200               0
1.33003              -0.08836217       -15.05786         -56.6679        92.41106             -200               0             -200               0
1.33663               -0.0909702       -15.18775        -56.30562        89.01124             -200               0             -200               0
1.34323              -0.09360003       -15.31884        -55.95374        85.55594             -200               0             -200               0
1.34984              -0.09625151       -15.45122        -55.61241        82.05348             -200               0             -200               0
1.35644              -0.09892387       -15.58495        -55.28168        78.51169             -200               0             -200               0
1.36304               -0.1016194       -15.72013        -54.96149        74.93791             -200               0             -200               0
1.36964               -0.1043408       -15.85685        -54.65171        71.33904             -200               0             -200               0
1.37624               -0.1070943       -15.99519        -54.35213        67.72152             -200               0             -200               0
1.38284               -0.1098847       -16.13523         -54.0625        64.09134             -200               0             -200               0
1.38944               -0.1127203       -16.27705        -53.78249        60.45412             -200               0             -200               0
1.39604               -0.1156113       -16.42073        -53.51174        56.81507             -200               0             -200               0
1.40264                -0.118567       -16.56633        -53.24986          53.179             -200               0             -200               0
1.40924               -0.1215984       -16.71391        -52.99638        49.55041             -200               0             -200               0
1.41584               -0.1247185       -16.86353        -52.75085        45.93339             -200               0             -200               0
1.42244               -0.1279419       -17.01522        -52.51273         42.3317             -200               0             -200               0
1.42904               -0.1312782       -17.16903        -52.28149        38.74875             -200               0             -200               0
1.43564                -0.134742       -17.32496        -52.05657        35.18757             -200               0             -200               0
1.44224               -0.1383467       -17.48305        -51.83735        31.65084             -200               0             -200               0
1.44884                -0.142104       -17.64329        -51.62323        28.14087             -200               0             -200               0
1.45545               -0.1460266       -17.80567        -51.41355        24.65955             -200               0             -200               0
1.46205               -0.1501242       -17.97019        -51.20768        21.20841             -200               0             -200               0
1.46865               -0.1544094       -18.13684        -51.00494        17.78852             -200               0             -200               0
1.47525               -0.1588874       -18.30558        -50.80466        14.40055             -200               0             -200               0
1.48185               -0.1635673       -18.47639        -50.60615        11.04472             -200               0             -200               0
1.48845               -0.1684562       -18.64925        -50.40876        7.720799             -200               0             -200               0
1.49505                -0.173556       -18.82413        -50.21182        4.428091             -200               0             -200               0
1.50165               -0.1788708       -19.00101        -50.01469        1.165459             -200               0             -200               0
1.50825               -0.1844039       -19.17987        -49.81676       -2.068678             -200               0             -200               0
1.51485               -0.1901518       -19.36069        -49.61747       -5.276327             -200               0             -200               0
1.52145               -0.1961177       -19.54347        -49.41627       -8.459897             -200               0             -200               0
1.52805               -0.2022958        -19.7282        -49.21269       -11.62215             -200               0             -200               0
1.53465               -0.2086875       -19.91491        -49.00631       -14.76618             -200               0             -200               0
1.54125               -0.2152855       -20.10361        -48.79677       -17.89534             -200               0             -200               0
1.54785               -0.2220892       -20.29434        -48.58379       -21.01317             -200               0             -200               0
1.55446               -0.2290945       -20.48715        -48.36715       -24.12339             -200               0             -200               0
1.56106               -0.2362972        -20.6821        -48.14672       -27.22975             -200               0             -200               0
1.56766               -0.2436965       -20.87926        -47.92243       -30.33603             -200               0             -200               0
1.57426               -0.2512911       -21.07873        -47.69429       -33.44593             -200               0             -200               0
1.58086                -0.259078       -21.28059        -47.46238         -36.563             -200               0             -200               0
1.58746               -0.2670611       -21.48497        -47.22685       -39.69064             -200               0             -200               0
1.59406               -0.2752433       -21.69196         -46.9879       -42.83197             -200               0             -200               0
1.60066               -0.2836295        -21.9017        -46.74577       -45.98982             -200               0             -200               0
1.60726               -0.2922255       -22.11434        -46.50077       -49.16672             -200               0             -200               0
1.61386               -0.3010428       -22.32998        -46.25322       -52.36483             -200               0             -200               0
1.62046               -0.3100918       -22.54878        -46.00347       -55.58597             -200               0             -200               0
1.62706               -0.3193878       -22.77088         -45.7519       -58.83158             -200               0             -200               0
1.63366               -0.3289476        -22.9964        -45.49889       -62.10273             -200               0             -200               0
1.64026               -0.3387895       -23.22548        -45.24481       -65.40016             -200               0             -200               0
1.64686               -0.3489346       -23.45825        -44.99005       -68.72427             -200               0             -200               0
1.65347               -0.3594067       -23.69482        -44.73496       -72.07513             -200               0             -200               0
1.66007               -0.3702311       -23.93531         -44.4799       -75.45256             -200               0             -200               0
1.66667               -0.3814346        -24.1798        -44.22518       -78.85608             -200               0             -200               0
1.67327               -0.3930446       -24.42838        -43.97112       -82.28503             -200               0             -200               0
1.67987                 -0.40509       -24.68113        -43.71797       -85.73853             -200               0             -200               0
1.68647               -0.4176026        -24.9381          -43.466       -89.21554             -200               0             -200               0
1.69307               -0.4306111       -25.19935         -43.2154       -92.71488             -200               0             -200               0
1.69967               -0.4441466       -25.46491        -42.96637       -96.23529             -200               0             -200               0
1.70627                 -0.45824        -25.7348        -42.71905       -99.77542             -200               0             -200               0
1.71287               -0.4729204       -26.00903        -42.47357       -103.3339             -200               0             -200               0
1.71947               -0.4882178        -26.2876        -42.23001       -106.9092             -200               0             -200               0
1.72607               -0.5041605       -26.57051        -41.98843          -110.5             -200               0             -200               0
1.73267               -0.5207761       -26.85775        -41.74887       -114.1049             -200               0             -200               0
1.73927               -0.5380908       -27.14929        -41.51132       -117.7224             -200               0             -200               0
1.74587               -0.5561302       -27.44512        -41.27576       -121.3514             -200               0             -200               0
1.75248               -0.5749183       -27.74522        -41.04216       -124.9905             -200               0             -200               0
1.75908               -0.5944776       -28.04957        -40.81044       -128.6386             -200               0             -200               0
1.76568                -0.614831       -28.35816        -40.58052       -132.2946             -200               0             -200               0
1.77228               -0.6359975       -28.67099        -40.35229       -135.9577             -200               0             -200               0
1.77888               -0.6579994       -28.98805        -40.12563       -139.6269             -200               0             -200               0
1.78548               -0.6808562       -29.30936         -39.9004       -143.3016             -200               0             -200               0
1.79208               -0.7045895       -29.63494        -39.67648       -146.9812             -200               0             -200               0
1.79868               -0.7292172       -29.96483         -39.4537       -150.6653             -200               0             -200               0
1.80528               -0.7547628       -30.29908         -39.2319       -154.3537             -200               0             -200               0
1.81188               -0.7812477       -30.63775        -39.01093       -158.0461             -200               0             -200               0
1.81848               -0.8086967       -30.98093        -38.79063       -161.7426             -200               0             -200               0
1.82508               -0.8371357        -31.3287        -38.57082       -165.4434             -200               0             -200               0
1.83168                -0.866594       -31.68117        -38.35137       -169.1488             -200               0             -200               0
1.83828               -0.8971024       -32.03845        -38.13212       -172.8591             -200               0             -200               0
1.84488               -0.9286981       -32.40068        -37.91292        -176.575             -200               0             -200               0
1.85149               -0.9614196       -32.76799        -37.69366        179.7028             -200               0             -200               0
1.85809               -0.9953097        -33.1405        -37.47421        175.9736             -200               0             -200               0
1.86469                -1.030417       -33.51837        -37.25447        172.2365             -200               0             -200               0
1.87129                -1.066794       -33.90173        -37.03436        168.4905             -200               0             -200               0
1.87789                -1.104498       -34.29071        -36.81381        164.7345             -200               0             -200               0
1.88449                -1.143592       -34.68544        -36.59278        160.9674             -200               0             -200               0
1.89109                -1.184144       -35.08604        -36.37122        157.1881             -200               0             -200               0
1.89769                -1.226227        -35.4926        -36.14914        153.3953             -200               0             -200               0
1.90429                -1.269918       -35.90521        -35.92654         149.588             -200               0             -200               0
1.91089                -1.315301       -36.32391        -35.70346        145.7648             -200               0             -200               0
1.91749                -1.362463       -36.74874        -35.47993        141.9246             -200               0             -200               0
1.92409                -1.411496        -37.1797        -35.25604        138.0663             -200               0             -200               0
1.93069                -1.462496       -37.61678        -35.03187        134.1887             -200               0             -200               0
1.93729                -1.515562       -38.05988        -34.80751        130.2909             -200               0             -200               0
1.94389                -1.570797       -38.50893        -34.58309        126.3717             -200               0             -200               0
1.9505                 -1.628309       -38.96377        -34.35874        122.4304             -200               0             -200               0
1.9571                 -1.688204       -39.42423         -34.1346        118.4661             -200               0             -200               0
1.9637                 -1.750594       -39.89011        -33.91083         114.478             -200               0             -200               0
1.9703                 -1.815589       -40.36111        -33.68759        110.4655             -200               0             -200               0
1.9769                 -1.883306       -40.83697        -33.46504        106.4281             -200               0             -200               0
1.9835                 -1.953857       -41.31732        -33.24337        102.3653             -200               0             -200               0
1.9901                 -2.027355       -41.80178        -33.02276        98.27671             -200               0             -200               0
1.9967                 -2.103916       -42.28995        -32.80338        94.16211             -200               0             -200               0
2.0033                 -2.183655       -42.78135        -32.58542        90.02133             -200               0             -200               0
2.0099                 -2.266686       -43.27549        -32.36906        85.85429             -200               0             -200               0
2.0165                 -2.353123       -43.77185        -32.15449          81.661             -200               0             -200               0
2.0231                 -2.443079       -44.26986        -31.94188        77.44154             -200               0             -200               0
2.0297                 -2.536667       -44.76892         -31.7314        73.19609             -200               0             -200               0
2.0363                    -2.634       -45.26842        -31.52324        68.92489             -200               0             -200               0
2.0429                 -2.735189       -45.76771        -31.31755        64.62825             -200               0             -200               0
2.0495                 -2.840348        -46.2661        -31.11449        60.30654             -200               0             -200               0
2.05611                -2.949591        -46.7629        -30.91422        55.96019             -200               0             -200               0
2.06271                 -3.06303       -47.25738        -30.71688        51.58967             -200               0             -200               0
2.06931                -3.180782        -47.7488        -30.52262        47.19551             -200               0             -200               0
2.07591                -3.302966       -48.23639        -30.33158        42.77828             -200               0             -200               0
2.08251                -3.429702       -48.71935        -30.14387        38.33857             -200               0             -200               0
2.08911                -3.561117       -49.19685        -29.95962        33.87701             -200               0             -200               0
2.09571                 -3.69734       -49.66805        -29.77895        29.39426             -200               0             -200               0
2.10231                -3.838507       -50.13207        -29.60195        24.89101             -200               0             -200               0
2.10891                -3.984765       -50.58798        -29.42874        20.36794             -200               0             -200               0
2.11551                -4.136262       -51.03484         -29.2594        15.82578             -200               0             -200               0
2.12211                -4.293161        -51.4716        -29.09402        11.26525             -200               0             -200               0
2.12871                -4.455633       -51.89723        -28.93268        6.687084             -200               0             -200               0
2.13531                -4.623865       -52.31055        -28.77546         2.09203             -200               0             -200               0
2.14191                -4.798054       -52.71033        -28.62242       -2.519163             -200               0             -200               0
2.14851                -4.978415       -53.09527        -28.47364       -7.145745             -200               0             -200               0
2.15512                -5.165173        -53.4639        -28.32917       -11.78697             -200               0             -200               0
2.16172                -5.358581       -53.81463        -28.18906       -16.44207             -200               0             -200               0
2.16832                -5.558903       -54.14571        -28.05337        -21.1103             -200               0             -200               0
2.17492                -5.766426        -54.4552        -27.92214       -25.79092             -200               0             -200               0
2.18152                -5.981459       -54.74092         -27.7954       -30.48318             -200               0             -200               0
2.18812                -6.204332       -55.00043        -27.67321       -35.18633             -200               0             -200               0
2.19472                -6.435401       -55.23101        -27.55559       -39.89965             -200               0             -200               0
2.20132                -6.675039       -55.42953        -27.44256       -44.62238             -200               0             -200               0
2.20792                -6.923651        -55.5925        -27.33417       -49.35383             -200               0             -200               0
2.21452                -7.181654       -55.71592        -27.23042       -54.09326             -200               0             -200               0
2.22112                -7.449498       -55.79525        -27.13135       -58.83995             -200               0             -200               0
2.22772                -7.727637       -55.82525        -27.03697       -63.59321             -200               0             -200               0
2.23432                 -8.01655       -55.80003        -26.94729       -68.35232             -200               0             -200               0
2.24092                -8.316716       -55.71272        -26.86234       -73.11658             -200               0             -200               0
2.24752                -8.628614       -55.55552         -26.7821       -77.88532             -200               0             -200               0
2.25413                -8.952705       -55.31943        -26.70661       -82.65782             -200               0             -200               0
2.26073                -9.289417        -54.9941        -26.63586       -87.43342             -200               0             -200               0
2.26733                -9.639116       -54.56764        -26.56985       -92.21144             -200               0             -200               0
2.27393                -10.00207       -54.02633        -26.50859        -96.9912             -200               0             -200               0
2.28053                -10.37841       -53.35446        -26.45208        -101.772             -200               0             -200               0
2.28713                -10.76804       -52.53399        -26.40032       -106.5533             -200               0             -200               0
2.29373                -11.17058       -51.54434         -26.3533       -111.3342             -200               0             -200               0