! TOUCHSTONE file generated by CST MICROWAVE STUDIO
! Date and time: Sat Mar  8 13:55:35 2025
! Project name: non_fractured.cst
! Parameters = {B=2.5; D=160; F=20; Feed=2.85625; L=100; M=20; R=0.384908; S=2; Theta=270; length=57.125; wave=114.25}
! Header version: 2024
! Port assignment regex: !\s*Touchstone port\s*([0-9]+)\s*=\s*(CST MWS port|CST DES external port|CST DES block port)\s*(.+)\s* \(\"(.*)\"\)(\s*mode\s*([0-9]+))?.*
! Touchstone port assignment:
! Touchstone port 1 = CST MWS port 1 ("")
! Touchstone port 2 = CST MWS port 2 ("")
# GHz S DB R 50
1                    -0.01938623        -9.75914         -67.3528       -164.4233             -200               0             -200               0
1.0066               -0.02015771       -9.847152        -67.32696       -168.6923             -200               0             -200               0
1.0132               -0.02095991       -9.935614        -67.32383       -172.8013             -200               0             -200               0
1.0198               -0.02178947       -10.02452        -67.34215       -176.7344             -200               0             -200               0
1.0264               -0.02264291       -10.11388        -67.38035        179.5263             -200               0             -200               0
1.033                 -0.0235176        -10.2037        -67.43641             176             -200               0             -200               0
1.0396               -0.02441037       -10.29398        -67.50776        172.7076             -200               0             -200               0
1.0462               -0.02531677       -10.38475        -67.59113        169.6706             -200               0             -200               0
1.05281              -0.02623437       -10.47602        -67.68234        166.9105             -200               0             -200               0
1.05941              -0.02716105       -10.56782         -67.7762        164.4473             -200               0             -200               0
1.06601              -0.02809459       -10.66017        -67.86633        162.2976             -200               0             -200               0
1.07261              -0.02903223       -10.75311        -67.94517        160.4717             -200               0             -200               0
1.07921              -0.02997353       -10.84667        -68.00404        158.9706             -200               0             -200               0
1.08581              -0.03091814       -10.94089        -68.03343         157.782             -200               0             -200               0
1.09241              -0.03186606        -11.0358        -68.02362        156.8778             -200               0             -200               0
1.09901              -0.03281787       -11.13143        -67.96549        156.2118             -200               0             -200               0
1.10561              -0.03377606       -11.22784         -67.8515        155.7202             -200               0             -200               0
1.11221              -0.03474275       -11.32505        -67.67672        155.3257             -200               0             -200               0
1.11881              -0.03571953       -11.42309        -67.43948        154.9432             -200               0             -200               0
1.12541              -0.03671166         -11.522        -67.14167        154.4884             -200               0             -200               0
1.13201              -0.03772194       -11.62181        -66.78838        153.8857             -200               0             -200               0
1.13861              -0.03875677       -11.72254        -66.38717        153.0741             -200               0             -200               0
1.14521              -0.03981927       -11.82421          -65.947        152.0103             -200               0             -200               0
1.15182              -0.04091496       -11.92684         -65.4773        150.6691             -200               0             -200               0
1.15842              -0.04204879       -12.03043        -64.98717        149.0409             -200               0             -200               0
1.16502              -0.04322661       -12.13501        -64.48479        147.1288             -200               0             -200               0
1.17162              -0.04445352       -12.24056        -63.97724        144.9449             -200               0             -200               0
1.17822               -0.0457332       -12.34709        -63.47032        142.5071             -200               0             -200               0
1.18482              -0.04706991       -12.45458        -62.96869        139.8367             -200               0             -200               0
1.19142              -0.04846803       -12.56305        -62.47596        136.9561             -200               0             -200               0
1.19802               -0.0499316       -12.67246        -61.99488        133.8878             -200               0             -200               0
1.20462              -0.05146255        -12.7828        -61.52744        130.6537             -200               0             -200               0
1.21122              -0.05306185       -12.89407        -61.07508        127.2741             -200               0             -200               0
1.21782              -0.05473215       -13.00624        -60.63877        123.7679             -200               0             -200               0
1.22442              -0.05647369       -13.11931        -60.21912        120.1525             -200               0             -200               0
1.23102              -0.05828456       -13.23324        -59.81649        116.4438             -200               0             -200               0
1.23762              -0.06016644       -13.34804        -59.43101        112.6561             -200               0             -200               0
1.24422              -0.06211505       -13.46369        -59.06267        108.8025             -200               0             -200               0
1.25083              -0.06412983       -13.58019        -58.71134        104.8948             -200               0             -200               0
1.25743              -0.06620761       -13.69754         -58.3768        100.9439             -200               0             -200               0
1.26403              -0.06834508       -13.81574        -58.05875        96.95986             -200               0             -200               0
1.27063               -0.0705391        -13.9348        -57.75688        92.95176             -200               0             -200               0
1.27723              -0.07278691       -14.05473        -57.47079        88.92814             -200               0             -200               0
1.28383              -0.07508397       -14.17554        -57.20008        84.89694             -200               0             -200               0
1.29043              -0.07742699       -14.29728        -56.94432        80.86563             -200               0             -200               0
1.29703              -0.07981293       -14.41997        -56.70304        76.84125             -200               0             -200               0
1.30363              -0.08223923       -14.54363        -56.47575        72.83052             -200               0             -200               0
1.31023              -0.08470393       -14.66833        -56.26194        68.83986             -200               0             -200               0
1.31683              -0.08720452       -14.79409        -56.06106        64.87544             -200               0             -200               0
1.32343              -0.08974181       -14.92096        -55.87253        60.94323             -200               0             -200               0
1.33003              -0.09231348       -15.04901        -55.69574          57.049             -200               0             -200               0
1.33663              -0.09492227       -15.17828        -55.53001        53.19831             -200               0             -200               0
1.34323              -0.09756771       -15.30882        -55.37465        49.39658             -200               0             -200               0
1.34984               -0.1002534       -15.44069        -55.22887        45.64901             -200               0             -200               0
1.35644                -0.102983       -15.57394        -55.09184        41.96056             -200               0             -200               0
1.36304               -0.1057592       -15.70862        -54.96267        38.33594             -200               0             -200               0
1.36964               -0.1085877       -15.84479        -54.84037        34.77954             -200               0             -200               0
1.37624               -0.1114729       -15.98249        -54.72389        31.29534             -200               0             -200               0
1.38284               -0.1144205       -16.12175        -54.61209        27.88683             -200               0             -200               0
1.38944               -0.1174375       -16.26263        -54.50375        24.55693             -200               0             -200               0
1.39604               -0.1205305       -16.40515        -54.39756        21.30782             -200               0             -200               0
1.40264               -0.1237048       -16.54934        -54.29215        18.14089             -200               0             -200               0
1.40924               -0.1269674       -16.69523        -54.18608        15.05652             -200               0             -200               0
1.41584               -0.1303263       -16.84284        -54.07787        12.05403             -200               0             -200               0
1.42244               -0.1337858       -16.99219          -53.966        9.131495             -200               0             -200               0
1.42904               -0.1373523       -17.14329        -53.84897        6.285706             -200               0             -200               0
1.43564                -0.141031       -17.29614        -53.72533        3.512063             -200               0             -200               0
1.44224               -0.1448262       -17.45077        -53.59366       0.8045756             -200               0             -200               0
1.44884               -0.1487413       -17.60717         -53.4527       -1.844102             -200               0             -200               0
1.45545               -0.1527808       -17.76536        -53.30132       -4.442574             -200               0             -200               0
1.46205               -0.1569458       -17.92535        -53.13859       -7.000532             -200               0             -200               0
1.46865               -0.1612377       -18.08714         -52.9638       -9.528533             -200               0             -200               0
1.47525               -0.1656588       -18.25076         -52.7765       -12.03772             -200               0             -200               0
1.48185               -0.1702077       -18.41621         -52.5765       -14.53951             -200               0             -200               0
1.48845               -0.1748848       -18.58353        -52.36386       -17.04525             -200               0             -200               0
1.49505               -0.1796897       -18.75275        -52.13893       -19.56588             -200               0             -200               0
1.50165               -0.1846207       -18.92391        -51.90228       -22.11167             -200               0             -200               0
1.50825               -0.1896762       -19.09704        -51.65469        -24.6919             -200               0             -200               0
1.51485               -0.1948563       -19.27222        -51.39712       -27.31473             -200               0             -200               0
1.52145               -0.2001591       -19.44949        -51.13066       -29.98699             -200               0             -200               0
1.52805               -0.2055843       -19.62894        -50.85649       -32.71418             -200               0             -200               0
1.53465               -0.2111324       -19.81065        -50.57585       -35.50039             -200               0             -200               0
1.54125               -0.2168036       -19.99469        -50.28997       -38.34841             -200               0             -200               0
1.54785               -0.2226006       -20.18118         -50.0001       -41.25976             -200               0             -200               0
1.55446               -0.2285263       -20.37021        -49.70742       -44.23483             -200               0             -200               0
1.56106               -0.2345861        -20.5619        -49.41305       -47.27303             -200               0             -200               0
1.56766               -0.2407855       -20.75636        -49.11803       -50.37284             -200               0             -200               0
1.57426               -0.2471324        -20.9537         -48.8233        -53.5321             -200               0             -200               0
1.58086               -0.2536371       -21.15406        -48.52973       -56.74799             -200               0             -200               0
1.58746               -0.2603102       -21.35756        -48.23805       -60.01728             -200               0             -200               0
1.59406                -0.267165       -21.56431        -47.94893       -63.33636             -200               0             -200               0
1.60066               -0.2742175       -21.77444        -47.66291       -66.70137             -200               0             -200               0
1.60726               -0.2814833       -21.98807        -47.38044       -70.10829             -200               0             -200               0
1.61386               -0.2889814        -22.2053        -47.10191         -73.553             -200               0             -200               0
1.62046               -0.2967322       -22.42625        -46.82759       -77.03138             -200               0             -200               0
1.62706               -0.3047563       -22.65102        -46.55768       -80.53929             -200               0             -200               0
1.63366               -0.3130777        -22.8797        -46.29233        -84.0727             -200               0             -200               0
1.64026               -0.3217196       -23.11237        -46.03158       -87.62764             -200               0             -200               0
1.64686               -0.3307052       -23.34911        -45.77544       -91.20031             -200               0             -200               0
1.65347               -0.3400619       -23.58997        -45.52385       -94.78705             -200               0             -200               0
1.66007               -0.3498133       -23.83503        -45.27669       -98.38437             -200               0             -200               0
1.66667               -0.3599874       -24.08432         -45.0338        -101.989             -200               0             -200               0
1.67327               -0.3706076       -24.33788        -44.79497       -105.5979             -200               0             -200               0
1.67987               -0.3817012       -24.59574        -44.55994       -109.2083             -200               0             -200               0
1.68647               -0.3932926       -24.85792        -44.32843       -112.8176             -200               0             -200               0
1.69307               -0.4054064       -25.12445        -44.10011       -116.4234             -200               0             -200               0
1.69967               -0.4180659       -25.39533        -43.87462       -120.0239             -200               0             -200               0
1.70627               -0.4312951       -25.67057        -43.65157       -123.6172             -200               0             -200               0
1.71287               -0.4451158       -25.95019        -43.43056        -127.202             -200               0             -200               0
1.71947               -0.4595485       -26.23418        -43.21117       -130.7772             -200               0             -200               0
1.72607               -0.4746158       -26.52257        -42.99294       -134.3421             -200               0             -200               0
1.73267               -0.4903349       -26.81536        -42.77545       -137.8962             -200               0             -200               0
1.73927               -0.5067279       -27.11259        -42.55823       -141.4396             -200               0             -200               0
1.74587                -0.523812       -27.41426        -42.34084       -144.9727             -200               0             -200               0
1.75248               -0.5416062       -27.72044        -42.12284       -148.4959             -200               0             -200               0
1.75908               -0.5601304       -28.03115         -41.9038       -152.0105             -200               0             -200               0
1.76568               -0.5794023       -28.34646        -41.68332       -155.5177             -200               0             -200               0
1.77228               -0.5994414       -28.66644        -41.46102       -159.0192             -200               0             -200               0
1.77888               -0.6202706       -28.99117        -41.23656       -162.5171             -200               0             -200               0
1.78548               -0.6419099       -29.32075        -41.00964       -166.0136             -200               0             -200               0
1.79208               -0.6643846       -29.65527        -40.77998       -169.5112             -200               0             -200               0
1.79868                -0.687721       -29.99488        -40.54739       -173.0125             -200               0             -200               0
1.80528               -0.7119459       -30.33968        -40.31169       -176.5205             -200               0             -200               0
1.81188                -0.737093       -30.68983        -40.07277         179.962             -200               0             -200               0
1.81848               -0.7631964       -31.04548        -39.83059        176.4318             -200               0             -200               0
1.82508               -0.7902941       -31.40677        -39.58515         172.886             -200               0             -200               0
1.83168               -0.8184279       -31.77389        -39.33648        169.3216             -200               0             -200               0
1.83828               -0.8476449       -32.14697        -39.08472        165.7356             -200               0             -200               0
1.84488               -0.8779956        -32.5262           -38.83        162.1253             -200               0             -200               0
1.85149               -0.9095357       -32.91174        -38.57253         158.488             -200               0             -200               0
1.85809               -0.9423246       -33.30373        -38.31255        154.8213             -200               0             -200               0
1.86469               -0.9764274       -33.70233        -38.05033        151.1229             -200               0             -200               0
1.87129                -1.011914       -34.10769        -37.78618        147.3908             -200               0             -200               0
1.87789                -1.048858       -34.51991        -37.52043        143.6234             -200               0             -200               0
1.88449                -1.087341       -34.93911        -37.25342         139.819             -200               0             -200               0
1.89109                -1.127445       -35.36537        -36.98553        135.9766             -200               0             -200               0
1.89769                -1.169259       -35.79876        -36.71711        132.0951             -200               0             -200               0
1.90429                -1.212875       -36.23932        -36.44854        128.1738             -200               0             -200               0
1.91089                -1.258392       -36.68704         -36.1802        124.2122             -200               0             -200               0
1.91749                 -1.30591       -37.14194        -35.91244        120.2102             -200               0             -200               0
1.92409                -1.355535       -37.60394        -35.64563        116.1676             -200               0             -200               0
1.93069                -1.407376       -38.07297        -35.38012        112.0846             -200               0             -200               0
1.93729                -1.461543       -38.54891        -35.11623        107.9616             -200               0             -200               0
1.94389                -1.518151       -39.03161         -34.8543        103.7991             -200               0             -200               0
1.9505                 -1.577319       -39.52088        -34.59462        99.59756             -200               0             -200               0
1.9571                 -1.639166        -40.0165        -34.33748        95.35788             -200               0             -200               0
1.9637                 -1.703813       -40.51819        -34.08316        91.08088             -200               0             -200               0
1.9703                 -1.771388       -41.02567        -33.83189        86.76749             -200               0             -200               0
1.9769                 -1.842015       -41.53858        -33.58392        82.41873             -200               0             -200               0
1.9835                 -1.915823       -42.05654        -33.33946        78.03568             -200               0             -200               0
1.9901                 -1.992943       -42.57914        -33.09872        73.61943             -200               0             -200               0
1.9967                 -2.073507       -43.10592        -32.86186        69.17117             -200               0             -200               0
2.0033                 -2.157649       -43.63637        -32.62907        64.69204             -200               0             -200               0
2.0099                 -2.245504       -44.16997        -32.40049        60.18327             -200               0             -200               0
2.0165                 -2.337212       -44.70613        -32.17626        55.64605             -200               0             -200               0
2.0231                  -2.43291       -45.24422        -31.95651        51.08158             -200               0             -200               0
2.0297                 -2.532744        -45.7836        -31.74134        46.49108             -200               0             -200               0
2.0363                 -2.636857       -46.32353        -31.53086        41.87573             -200               0             -200               0
2.0429                 -2.745398       -46.86327        -31.32515        37.23674             -200               0             -200               0
2.0495                 -2.858518       -47.40201        -31.12429        32.57524             -200               0             -200               0
2.05611                 -2.97637       -47.93891        -30.92836        27.89242             -200               0             -200               0
2.06271                -3.099115       -48.47304         -30.7374         23.1894             -200               0             -200               0
2.06931                -3.226917       -49.00344        -30.55149        18.46728             -200               0             -200               0
2.07591                -3.359942       -49.52907        -30.37065        13.72717             -200               0             -200               0
2.08251                -3.498365       -50.04884        -30.19493        8.970126             -200               0             -200               0
2.08911                -3.642365       -50.56153        -30.02436        4.197199             -200               0             -200               0
2.09571                -3.792127        -51.0659        -29.85897      -0.5905909             -200               0             -200               0
2.10231                -3.947844       -51.56056        -29.69878       -5.392245             -200               0             -200               0
2.10891                -4.109716       -52.04407         -29.5438       -10.20679             -200               0             -200               0
2.11551                -4.277951       -52.51481        -29.39406       -15.03326             -200               0             -200               0
2.12211                -4.452763       -52.97106        -29.24955       -19.87074             -200               0             -200               0
2.12871                -4.634377       -53.41097        -29.11029        -24.7183             -200               0             -200               0
2.13531                -4.823022       -53.83248        -28.97627       -29.57506             -200               0             -200               0
2.14191                -5.018943       -54.23337         -28.8475       -34.44013             -200               0             -200               0
2.14851                -5.222387        -54.6112        -28.72397       -39.31268             -200               0             -200               0
2.15512                 -5.43361       -54.96331        -28.60567       -44.19185             -200               0             -200               0
2.16172                -5.652877       -55.28675        -28.49261       -49.07683             -200               0             -200               0
2.16832                 -5.88046       -55.57827        -28.38476       -53.96681             -200               0             -200               0
2.17492                -6.116632        -55.8343        -28.28211       -58.86099             -200               0             -200               0
2.18152                -6.361673       -56.05087        -28.18466       -63.75861             -200               0             -200               0
2.18812                -6.615858       -56.22358        -28.09239       -68.65889             -200               0             -200               0
2.19472                -6.879462       -56.34754        -28.00527       -73.56107             -200               0             -200               0
2.20132                -7.152747       -56.41731         -27.9233       -78.46441             -200               0             -200               0
2.20792                -7.435959       -56.42683        -27.84644       -83.36818             -200               0             -200               0
2.21452                -7.729318       -56.36934        -27.77468       -88.27164             -200               0             -200               0
2.22112                -8.033005       -56.23728          -27.708       -93.17407             -200               0             -200               0
2.22772                -8.347145       -56.02224        -27.64637       -98.07476             -200               0             -200               0
2.23432                 -8.67179       -55.71478        -27.58976        -102.973             -200               0             -200               0
2.24092                -9.006892       -55.30443        -27.53815       -107.8681             -200               0             -200               0
2.24752                -9.352268       -54.77952         -27.4915       -112.7593             -200               0             -200               0
2.25413                -9.707555       -54.12713         -27.4498        -117.646             -200               0             -200               0
2.26073                -10.07216       -53.33297          -27.413       -122.5275             -200               0             -200               0
2.26733                -10.44521       -52.38145        -27.38106        -127.403             -200               0             -200               0
2.27393                -10.82543        -51.2557        -27.35397        -132.272             -200               0             -200               0
2.28053                -11.21109       -49.93775        -27.33167       -137.1336             -200               0             -200               0
2.28713                -11.59988        -48.4089        -27.31413       -141.9872             -200               0             -200               0
2.29373                -11.98879       -46.65036         -27.3013       -146.8322             -200               0             -200               0