! TOUCHSTONE file generated by CST MICROWAVE STUDIO
! Date and time: Sat Mar  8 13:55:25 2025
! Project name: non_fractured.cst
! Parameters = {B=2.5; D=160; F=15; Feed=2.85625; L=100; M=20; R=0.384908; S=2; Theta=270; length=57.125; wave=114.25}
! Header version: 2024
! Port assignment regex: !\s*Touchstone port\s*([0-9]+)\s*=\s*(CST MWS port|CST DES external port|CST DES block port)\s*(.+)\s* \(\"(.*)\"\)(\s*mode\s*([0-9]+))?.*
! Touchstone port assignment:
! Touchstone port 1 = CST MWS port 1 ("")
! Touchstone port 2 = CST MWS port 2 ("")
# GHz S DB R 50
1                    -0.01894128       -9.742572        -68.67381       -145.7378             -200               0             -200               0
1.00658              -0.01973716       -9.830416        -68.44103       -149.6121             -200               0             -200               0
1.01316              -0.02057337        -9.91865        -68.22797       -153.4286             -200               0             -200               0
1.01974              -0.02144372       -10.00726        -68.03348       -157.1777             -200               0             -200               0
1.02632              -0.02234553       -10.09624        -67.85632       -160.8501             -200               0             -200               0
1.03289              -0.02327232       -10.18559        -67.69518       -164.4366             -200               0             -200               0
1.03947              -0.02421792       -10.27531        -67.54863       -167.9281             -200               0             -200               0
1.04605              -0.02517904       -10.36543         -67.4151       -171.3157             -200               0             -200               0
1.05263               -0.0261476       -10.45594        -67.29286       -174.5908             -200               0             -200               0
1.05921               -0.0271204       -10.54689        -67.17999       -177.7455             -200               0             -200               0
1.06579              -0.02809258       -10.63831        -67.07436        179.2274             -200               0             -200               0
1.07237              -0.02905903       -10.73023         -66.9736        176.3341             -200               0             -200               0
1.07895              -0.03001921       -10.82269        -66.87511        173.5792             -200               0             -200               0
1.08553              -0.03096862       -10.91575        -66.77609        170.9652             -200               0             -200               0
1.09211               -0.0319081       -11.00946        -66.67353        168.4925             -200               0             -200               0
1.09868              -0.03283512       -11.10385         -66.5643        166.1582             -200               0             -200               0
1.10526              -0.03375231       -11.19899        -66.44519        163.9563             -200               0             -200               0
1.11184              -0.03466077       -11.29494        -66.31308         161.877             -200               0             -200               0
1.11842              -0.03556363       -11.39173        -66.16498        159.9066             -200               0             -200               0
1.125                -0.03646566       -11.48942        -65.99827        158.0278             -200               0             -200               0
1.13158              -0.03737076       -11.58804        -65.81077        156.2198             -200               0             -200               0
1.13816               -0.0382854       -11.68765        -65.60091        154.4592             -200               0             -200               0
1.14474              -0.03921631       -11.78827        -65.36779         152.721             -200               0             -200               0
1.15132              -0.04016884       -11.88993         -65.1113        150.9795             -200               0             -200               0
1.15789               -0.0411521       -11.99266        -64.83202        149.2096             -200               0             -200               0
1.16447              -0.04217235       -12.09645        -64.53126        147.3881             -200               0             -200               0
1.17105              -0.04323758       -12.20133        -64.21089        145.4944             -200               0             -200               0
1.17763              -0.04435451       -12.30729        -63.87324        143.5113             -200               0             -200               0
1.18421              -0.04553056       -12.41433        -63.52095        141.4254             -200               0             -200               0
1.19079              -0.04677122       -12.52242         -63.1568        139.2271             -200               0             -200               0
1.19737              -0.04808276       -12.63156        -62.78364        136.9104             -200               0             -200               0
1.20395              -0.04946951       -12.74172         -62.4042        134.4726             -200               0             -200               0
1.21053              -0.05093538       -12.85287        -62.02108         131.914             -200               0             -200               0
1.21711               -0.0524828       -12.96499        -61.63665        129.2371             -200               0             -200               0
1.22368              -0.05411427       -13.07805        -61.25305        126.4464             -200               0             -200               0
1.23026              -0.05582972       -13.19201        -60.87216        123.5478             -200               0             -200               0
1.23684              -0.05762847       -13.30686        -60.49559        120.5481             -200               0             -200               0
1.24342              -0.05950872       -13.42256        -60.12473        117.4548             -200               0             -200               0
1.25                 -0.06146898       -13.53909         -59.7607         114.276             -200               0             -200               0
1.25658              -0.06350685       -13.65644        -59.40446        111.0196             -200               0             -200               0
1.26316              -0.06561502       -13.77459        -59.05674        107.6939             -200               0             -200               0
1.26974              -0.06779051       -13.89354        -58.71814        104.3068             -200               0             -200               0
1.27632              -0.07002735        -14.0133         -58.3891        100.8661             -200               0             -200               0
1.28289              -0.07232118       -14.13388        -58.06992        97.37944             -200               0             -200               0
1.28947              -0.07466532       -14.25529         -57.7608        93.85416             -200               0             -200               0
1.29605              -0.07705493       -14.37757        -57.46185        90.29726             -200               0             -200               0
1.30263              -0.07948535       -14.50074        -57.17309        86.71547             -200               0             -200               0
1.30921              -0.08195196       -14.62485        -56.89445        83.11522             -200               0             -200               0
1.31579              -0.08444879       -14.74995         -56.6258        79.50265             -200               0             -200               0
1.32237              -0.08697655        -14.8761        -56.36697        75.88362             -200               0             -200               0
1.32895               -0.0895298       -15.00335        -56.11769        72.26372             -200               0             -200               0
1.33553              -0.09210977       -15.13178        -55.87768        68.64825             -200               0             -200               0
1.34211              -0.09471544       -15.26144        -55.64657        65.04227             -200               0             -200               0
1.34868              -0.09734915       -15.39241        -55.42397        61.45055             -200               0             -200               0
1.35526               -0.1000123       -15.52476        -55.20943        57.87761             -200               0             -200               0
1.36184               -0.1027107       -15.65856        -55.00246         54.3277             -200               0             -200               0
1.36842               -0.1054498       -15.79387        -54.80252        50.80477             -200               0             -200               0
1.375                 -0.1082327       -15.93075        -54.60901        47.31246             -200               0             -200               0
1.38158               -0.1110707       -16.06927        -54.42132        43.85409             -200               0             -200               0
1.38816               -0.1139681       -16.20948        -54.23877        40.43262             -200               0             -200               0
1.39474               -0.1169361       -16.35141        -54.06064        37.05062             -200               0             -200               0
1.40132               -0.1199813       -16.49513        -53.88619        33.71022             -200               0             -200               0
1.40789               -0.1231159       -16.64064        -53.71463        30.41312             -200               0             -200               0
1.41447               -0.1263486       -16.78799        -53.54514        27.16047             -200               0             -200               0
1.42105               -0.1296869       -16.93719        -53.37688        23.95289             -200               0             -200               0
1.42763               -0.1331429       -17.08825        -53.20901        20.79042             -200               0             -200               0
1.43421               -0.1367225       -17.24118        -53.04067        17.67248             -200               0             -200               0
1.44079               -0.1404344       -17.39597          -52.871        14.59784             -200               0             -200               0
1.44737               -0.1442853       -17.55263        -52.69919        11.56462             -200               0             -200               0
1.45395               -0.1482809       -17.71115        -52.52444         8.57031             -200               0             -200               0
1.46053                -0.152428       -17.87151          -52.346        5.611723             -200               0             -200               0
1.46711               -0.1567273       -18.03371        -52.16318        2.685101             -200               0             -200               0
1.47368               -0.1611844       -18.19775         -51.9754      -0.2138681             -200               0             -200               0
1.48026               -0.1657998       -18.36361        -51.78212        -3.08997             -200               0             -200               0
1.48684               -0.1705729       -18.53129        -51.58293       -5.948368             -200               0             -200               0
1.49342                -0.175504        -18.7008        -51.37754       -8.794506             -200               0             -200               0
1.5                   -0.1805927       -18.87215        -51.16575       -11.63399             -200               0             -200               0
1.50658               -0.1858358       -19.04536         -50.9475       -14.47246             -200               0             -200               0
1.51316               -0.1912308       -19.22046        -50.72282       -17.31549             -200               0             -200               0
1.51974               -0.1967755       -19.39749        -50.49188       -20.16843             -200               0             -200               0
1.52632               -0.2024677       -19.57649        -50.25494       -23.03634             -200               0             -200               0
1.53289               -0.2083021       -19.75752        -50.01234       -25.92386             -200               0             -200               0
1.53947               -0.2142789       -19.94067        -49.76453       -28.83517             -200               0             -200               0
1.54605               -0.2203965         -20.126        -49.51199       -31.77389             -200               0             -200               0
1.55263               -0.2266531        -20.3136        -49.25528       -34.74306             -200               0             -200               0
1.55921               -0.2330519       -20.50359        -48.99498       -37.74515             -200               0             -200               0
1.56579               -0.2395931       -20.69606        -48.73169       -40.78199             -200               0             -200               0
1.57237               -0.2462811       -20.89114        -48.46602       -43.85485             -200               0             -200               0
1.57895               -0.2531229       -21.08896        -48.19857       -46.96444             -200               0             -200               0
1.58553               -0.2601244       -21.28962        -47.92993       -50.11092             -200               0             -200               0
1.59211               -0.2672966       -21.49327        -47.66067       -53.29401             -200               0             -200               0
1.59868               -0.2746502       -21.70003        -47.39129       -56.51297             -200               0             -200               0
1.60526               -0.2821998       -21.91004         -47.1223       -59.76672             -200               0             -200               0
1.61184               -0.2899617       -22.12341        -46.85413       -63.05382             -200               0             -200               0
1.61842                -0.297953       -22.34028        -46.58717       -66.37259             -200               0             -200               0
1.625                 -0.3061941       -22.56075        -46.32176       -69.72113             -200               0             -200               0
1.63158               -0.3147055       -22.78494        -46.05821       -73.09736             -200               0             -200               0
1.63816               -0.3235107       -23.01294        -45.79675       -76.49908             -200               0             -200               0
1.64474               -0.3326339       -23.24485        -45.53757       -79.92401             -200               0             -200               0
1.65132               -0.3421004       -23.48074        -45.28082       -83.36983             -200               0             -200               0
1.65789                -0.351935       -23.72069         -45.0266       -86.83421             -200               0             -200               0
1.66447               -0.3621657       -23.96474        -44.77494       -90.31484             -200               0             -200               0
1.67105               -0.3728179       -24.21295        -44.52587       -93.80947             -200               0             -200               0
1.67763               -0.3839187       -24.46536        -44.27935       -97.31591             -200               0             -200               0
1.68421               -0.3954928         -24.722         -44.0353       -100.8321             -200               0             -200               0
1.69079               -0.4075696       -24.98286        -43.79361       -104.3561             -200               0             -200               0
1.69737               -0.4201719       -25.24799        -43.55415       -107.8861             -200               0             -200               0
1.70395               -0.4333226       -25.51738        -43.31674       -111.4204             -200               0             -200               0
1.71053               -0.4470474       -25.79103        -43.08118       -114.9577             -200               0             -200               0
1.71711                -0.461369       -26.06894        -42.84726       -118.4966             -200               0             -200               0
1.72368               -0.4763072       -26.35113        -42.61472       -122.0361             -200               0             -200               0
1.73026               -0.4918825       -26.63758         -42.3833       -125.5755             -200               0             -200               0
1.73684                -0.508115       -26.92832        -42.15275        -129.114             -200               0             -200               0
1.74342               -0.5250234       -27.22334        -41.92277       -132.6513             -200               0             -200               0
1.75                   -0.542625       -27.52269        -41.69308       -136.1874             -200               0             -200               0
1.75658               -0.5609403       -27.82637        -41.46339       -139.7224             -200               0             -200               0
1.76316               -0.5799837       -28.13445        -41.23342       -143.2567             -200               0             -200               0
1.76974               -0.5997764       -28.44697         -41.0029       -146.7908             -200               0             -200               0
1.77632               -0.6203364       -28.76401        -40.77156       -150.3256             -200               0             -200               0
1.78289               -0.6416832       -29.08563        -40.53915       -153.8623             -200               0             -200               0
1.78947               -0.6638392       -29.41194        -40.30546       -157.4022             -200               0             -200               0
1.79605               -0.6868274       -29.74305        -40.07028       -160.9465             -200               0             -200               0
1.80263               -0.7106734       -30.07907        -39.83344       -164.4972             -200               0             -200               0
1.80921               -0.7354067       -30.42013        -39.59479       -168.0558             -200               0             -200               0
1.81579                -0.761058       -30.76639        -39.35423       -171.6244             -200               0             -200               0
1.82237               -0.7876629       -31.11798        -39.11168       -175.2049             -200               0             -200               0
1.82895               -0.8152597       -31.47506         -38.8671       -178.7994             -200               0             -200               0
1.83553               -0.8438923       -31.83779        -38.62048        177.5901             -200               0             -200               0
1.84211               -0.8736082       -32.20633        -38.37186        173.9615             -200               0             -200               0
1.84868               -0.9044596       -32.58084        -38.12131        170.3127             -200               0             -200               0
1.85526                -0.936502       -32.96147        -37.86892        166.6417             -200               0             -200               0
1.86184               -0.9697984       -33.34835        -37.61483        162.9467             -200               0             -200               0
1.86842                -1.004415       -33.74163        -37.35919        159.2259             -200               0             -200               0
1.875                  -1.040423       -34.14141        -37.10221        155.4775             -200               0             -200               0
1.88158                -1.077897        -34.5478        -36.84409        151.7001             -200               0             -200               0
1.88816                 -1.11692       -34.96087        -36.58506        147.8923             -200               0             -200               0
1.89474                -1.157573       -35.38067        -36.32537         144.053             -200               0             -200               0
1.90132                -1.199949       -35.80722        -36.06528        140.1809             -200               0             -200               0
1.90789                -1.244137       -36.24052        -35.80507        136.2754             -200               0             -200               0
1.91447                -1.290235       -36.68053        -35.54501        132.3358             -200               0             -200               0
1.92105                -1.338342       -37.12719        -35.28538        128.3615             -200               0             -200               0
1.92763                -1.388558       -37.58039        -35.02646        124.3521             -200               0             -200               0
1.93421                -1.440988       -38.03998        -34.76854        120.3076             -200               0             -200               0
1.94079                 -1.49574       -38.50579        -34.51189        116.2278             -200               0             -200               0
1.94737                 -1.55292        -38.9776        -34.25678        112.1129             -200               0             -200               0
1.95395                -1.612638       -39.45517        -34.00347        107.9631             -200               0             -200               0
1.96053                -1.675004        -39.9382        -33.75223        103.7787             -200               0             -200               0
1.96711                -1.740128       -40.42638        -33.50328        99.56022             -200               0             -200               0
1.97368                -1.808125       -40.91933        -33.25687        95.30822             -200               0             -200               0
1.98026                -1.879101       -41.41667         -33.0132        91.02331             -200               0             -200               0
1.98684                -1.953173       -41.91798         -32.7725        86.70621             -200               0             -200               0
1.99342                -2.030451       -42.42278        -32.53496        82.35769             -200               0             -200               0
2                      -2.111047       -42.93059        -32.30077        77.97859             -200               0             -200               0
2.00658                -2.195075       -43.44088        -32.07009        73.56976             -200               0             -200               0
2.01316                -2.282646        -43.9531        -31.84308        69.13213             -200               0             -200               0
2.01974                -2.373875       -44.46668         -31.6199        64.66664             -200               0             -200               0
2.02632                -2.468873       -44.98101        -31.40067        60.17423             -200               0             -200               0
2.03289                -2.567758       -45.49545        -31.18554        55.65592             -200               0             -200               0
2.03947                -2.670645       -46.00933        -30.97461        51.11266             -200               0             -200               0
2.04605                -2.777652       -46.52197        -30.76798        46.54547             -200               0             -200               0
2.05263                -2.888901       -47.03264        -30.56577        41.95536             -200               0             -200               0
2.05921                -3.004514        -47.5406        -30.36804         37.3433             -200               0             -200               0
2.06579                -3.124619       -48.04506        -30.17489         32.7103             -200               0             -200               0
2.07237                -3.249347       -48.54518        -29.98637        28.05736             -200               0             -200               0
2.07895                -3.378834       -49.04012        -29.80257        23.38545             -200               0             -200               0
2.08553                -3.513223       -49.52897        -29.62353        18.69554             -200               0             -200               0
2.09211                -3.652661       -50.01075        -29.44931        13.98859             -200               0             -200               0
2.09868                -3.797301       -50.48446        -29.27994        9.265538             -200               0             -200               0
2.10526                 -3.94731         -50.949        -29.11548        4.527329             -200               0             -200               0
2.11184                -4.102857       -51.40321        -28.95594      -0.2251248             -200               0             -200               0
2.11842                -4.264122       -51.84585        -28.80138        -4.99092             -200               0             -200               0
2.125                  -4.431297       -52.27556        -28.65179       -9.769165             -200               0             -200               0
2.13158                -4.604582       -52.69087        -28.50722       -14.55899             -200               0             -200               0
2.13816                -4.784188       -53.09019        -28.36767       -19.35953             -200               0             -200               0
2.14474                -4.970341       -53.47177        -28.23316       -24.16994             -200               0             -200               0
2.15132                -5.163274       -53.83369         -28.1037        -28.9894             -200               0             -200               0
2.15789                -5.363234       -54.17383         -27.9793       -33.81708             -200               0             -200               0
2.16447                -5.570482       -54.48986        -27.85996       -38.65217             -200               0             -200               0
2.17105                -5.785286       -54.77919        -27.74569       -43.49389             -200               0             -200               0
2.17763                -6.007928       -55.03894        -27.63648       -48.34144             -200               0             -200               0
2.18421                -6.238699       -55.26591        -27.53233       -53.19407             -200               0             -200               0
2.19079                -6.477897       -55.45653        -27.43324       -58.05101             -200               0             -200               0
2.19737                -6.725825        -55.6068        -27.33919       -62.91151             -200               0             -200               0
2.20395                -6.982791       -55.71226        -27.25019       -67.77483             -200               0             -200               0
2.21053                -7.249097       -55.76792        -27.16622       -72.64023             -200               0             -200               0
2.21711                -7.525039       -55.76813        -27.08726         -77.507             -200               0             -200               0
2.22368                -7.810894       -55.70663        -27.01331        -82.3744             -200               0             -200               0
2.23026                -8.106914       -55.57632        -26.94435       -87.24174             -200               0             -200               0
2.23684                 -8.41331       -55.36926        -26.88036        -92.1083             -200               0             -200               0
2.24342                -8.730233        -55.0765        -26.82132       -96.97339             -200               0             -200               0
2.25                   -9.057751       -54.68804        -26.76721       -101.8363             -200               0             -200               0
2.25658                -9.395821       -54.19266          -26.718       -106.6963             -200               0             -200               0
2.26316                -9.744249        -53.5778        -26.67369       -111.5528             -200               0             -200               0
2.26974                -10.10264       -52.82952        -26.63423        -116.405             -200               0             -200               0
2.27632                -10.47035       -51.93239         -26.5996       -121.2523             -200               0             -200               0
2.28289                -10.84637       -50.86953        -26.56976        -126.094             -200               0             -200               0
2.28947                -11.22929       -49.62262         -26.5447       -130.9294             -200               0             -200               0