! TOUCHSTONE file generated by CST MICROWAVE STUDIO
! Date and time: Sat Mar  8 13:54:24 2025
! Project name: non_fractured.cst
! Parameters = {B=2.5; D=160; F=20; Feed=2.85625; L=100; M=5; R=0.384908; S=2.5; Theta=90; length=57.125; wave=114.25}
! Header version: 2024
! Port assignment regex: !\s*Touchstone port\s*([0-9]+)\s*=\s*(CST MWS port|CST DES external port|CST DES block port)\s*(.+)\s* \(\"(.*)\"\)(\s*mode\s*([0-9]+))?.*
! Touchstone port assignment:
! Touchstone port 1 = CST MWS port 1 ("")
! Touchstone port 2 = CST MWS port 2 ("")
# GHz S DB R 50
1                    -0.01832218       -9.747507        -68.86032       -135.9465             -200               0             -200               0
1.0066               -0.01905006       -9.836303        -68.38433       -139.3685             -200               0             -200               0
1.0132                -0.0198359       -9.925561        -67.93441       -142.9295             -200               0             -200               0
1.0198               -0.02067501       -10.01525        -67.51051       -146.6041             -200               0             -200               0
1.0264               -0.02156323       -10.10534        -67.11232       -150.3703             -200               0             -200               0
1.033                -0.02249723        -10.1958        -66.73938       -154.2085             -200               0             -200               0
1.0396               -0.02346994       -10.28663        -66.39114       -158.1016             -200               0             -200               0
1.0462               -0.02447611       -10.37781          -66.067        -162.034             -200               0             -200               0
1.05281              -0.02550828       -10.46933        -65.76631       -165.9918             -200               0             -200               0
1.05941              -0.02656072       -10.56121        -65.48842       -169.9621             -200               0             -200               0
1.06601              -0.02762645       -10.65346        -65.23266       -173.9329             -200               0             -200               0
1.07261              -0.02869824       -10.74611        -64.99836       -177.8932             -200               0             -200               0
1.07921              -0.02976972       -10.83917        -64.78484        178.1679             -200               0             -200               0
1.08581              -0.03083667       -10.93271         -64.5914        174.2605             -200               0             -200               0
1.09241              -0.03189276       -11.02674        -64.41731        170.3949             -200               0             -200               0
1.09901              -0.03293502       -11.12134        -64.26182        166.5808             -200               0             -200               0
1.10561              -0.03396025       -11.21655         -64.1241        162.8283             -200               0             -200               0
1.11221              -0.03496671       -11.31244        -64.00327        159.1472             -200               0             -200               0
1.11881               -0.0359551       -11.40907        -63.89834        155.5475             -200               0             -200               0
1.12541              -0.03692566        -11.5065        -63.80821        152.0393             -200               0             -200               0
1.13201              -0.03788056       -11.60479        -63.73163        148.6326             -200               0             -200               0
1.13861              -0.03882362       -11.70401        -63.66718        145.3373             -200               0             -200               0
1.14521               -0.0397602        -11.8042        -63.61324        142.1634             -200               0             -200               0
1.15182              -0.04069593       -11.90543        -63.56795        139.1201             -200               0             -200               0
1.15842               -0.0416375       -12.00775        -63.52917        136.2163             -200               0             -200               0
1.16502              -0.04259284       -12.11118        -63.49449        133.4596             -200               0             -200               0
1.17162              -0.04357122       -12.21577        -63.46122        130.8562             -200               0             -200               0
1.17822              -0.04458003       -12.32153        -63.42636        128.4104             -200               0             -200               0
1.18482              -0.04562908       -12.42848        -63.38663        126.1236             -200               0             -200               0
1.19142              -0.04672835       -12.53664        -63.33857        123.9941             -200               0             -200               0
1.19802              -0.04788559       -12.64599        -63.27857        122.0163             -200               0             -200               0
1.20462              -0.04910977       -12.75653        -63.20304        120.1803             -200               0             -200               0
1.21122              -0.05040876       -12.86824        -63.10855        118.4715             -200               0             -200               0
1.21782              -0.05178896       -12.98109        -62.99199        116.8707             -200               0             -200               0
1.22442              -0.05325644       -13.09506         -62.8508        115.3547             -200               0             -200               0
1.23102              -0.05481603       -13.21011        -62.68308        113.8965             -200               0             -200               0
1.23762              -0.05647097       -13.32619        -62.48778        112.4674             -200               0             -200               0
1.24422              -0.05822314       -13.44328        -62.26474        111.0376             -200               0             -200               0
1.25083              -0.06007376       -13.56132        -62.01468        109.5781             -200               0             -200               0
1.25743              -0.06202102       -13.68029        -61.73915        108.0623             -200               0             -200               0
1.26403              -0.06406303       -13.80014        -61.44041        106.4666             -200               0             -200               0
1.27063              -0.06619713       -13.92084        -61.12119        104.7717             -200               0             -200               0
1.27723              -0.06841774       -14.04238        -60.78461        102.9631             -200               0             -200               0
1.28383              -0.07071861       -14.16473        -60.43389        101.0306             -200               0             -200               0
1.29043              -0.07309471       -14.28788        -60.07227        98.96829             -200               0             -200               0
1.29703              -0.07553742       -14.41183        -59.70285        96.77433             -200               0             -200               0
1.30363              -0.07803987        -14.5366         -59.3285        94.44991             -200               0             -200               0
1.31023              -0.08059463        -14.6622        -58.95181        91.99886             -200               0             -200               0
1.31683               -0.0831928       -14.78867        -58.57506        89.42695             -200               0             -200               0
1.32343              -0.08582767       -14.91605        -58.20022        86.74135             -200               0             -200               0
1.33003              -0.08849362       -15.04439        -57.82895        83.95016             -200               0             -200               0
1.33663              -0.09118251       -15.17376        -57.46259        81.06202             -200               0             -200               0
1.34323              -0.09389248       -15.30423        -57.10227        78.08581             -200               0             -200               0
1.34984              -0.09661773       -15.43587        -56.74885        75.03043             -200               0             -200               0
1.35644              -0.09935681       -15.56878        -56.40299         71.9046             -200               0             -200               0
1.36304               -0.1021096       -15.70303        -56.06517        68.71678             -200               0             -200               0
1.36964               -0.1048775       -15.83874        -55.73571        65.47504             -200               0             -200               0
1.37624               -0.1076635       -15.97598        -55.41481         62.1871             -200               0             -200               0
1.38284               -0.1104724       -16.11486        -55.10253        58.86018             -200               0             -200               0
1.38944               -0.1133097       -16.25546        -54.79885        55.50109             -200               0             -200               0
1.39604               -0.1161844       -16.39788        -54.50367        52.11617             -200               0             -200               0
1.40264               -0.1191064       -16.54219        -54.21679        48.71132             -200               0             -200               0
1.40924               -0.1220858       -16.68848        -53.93797        45.29199             -200               0             -200               0
1.41584                -0.125135        -16.8368        -53.66692         41.8632             -200               0             -200               0
1.42244               -0.1282672       -16.98722        -53.40327        38.42956             -200               0             -200               0
1.42904               -0.1314951       -17.13979        -53.14665        34.99524             -200               0             -200               0
1.43564               -0.1348346       -17.29454        -52.89663        31.56403             -200               0             -200               0
1.44224               -0.1382979        -17.4515        -52.65276         28.1393             -200               0             -200               0
1.44884               -0.1419003       -17.61068        -52.41456        24.72404             -200               0             -200               0
1.45545                -0.145654        -17.7721        -52.18153        21.32083             -200               0             -200               0
1.46205               -0.1495725       -17.93575        -51.95315        17.93186             -200               0             -200               0
1.46865               -0.1536678       -18.10162        -51.72889        14.55895             -200               0             -200               0
1.47525               -0.1579522       -18.26969        -51.50823        11.20351             -200               0             -200               0
1.48185                -0.162433       -18.43994        -51.29062        7.866561             -200               0             -200               0
1.48845               -0.1671175       -18.61234        -51.07551         4.54875             -200               0             -200               0
1.49505               -0.1720145       -18.78687         -50.8624        1.250344             -200               0             -200               0
1.50165               -0.1771289        -18.9635        -50.65075       -2.028761             -200               0             -200               0
1.50825               -0.1824616       -19.14219        -50.44008       -5.289026             -200               0             -200               0
1.51485               -0.1880154       -19.32294         -50.2299       -8.531253             -200               0             -200               0
1.52145               -0.1937906       -19.50572        -50.01977       -11.75656             -200               0             -200               0
1.52805               -0.1997875       -19.69054        -49.80928       -14.96637             -200               0             -200               0
1.53465               -0.2060025       -19.87738        -49.59806       -18.16236             -200               0             -200               0
1.54125               -0.2124334       -20.06627        -49.38578       -21.34643             -200               0             -200               0
1.54785               -0.2190758       -20.25724        -49.17214       -24.52068             -200               0             -200               0
1.55446               -0.2259278       -20.45032        -48.95693       -27.68736             -200               0             -200               0
1.56106               -0.2329861       -20.64557        -48.73995        -30.8488             -200               0             -200               0
1.56766               -0.2402466       -20.84305        -48.52107       -34.00741             -200               0             -200               0
1.57426               -0.2477068       -21.04285         -48.3002        -37.1656             -200               0             -200               0
1.58086               -0.2553669       -21.24507        -48.07732       -40.32574             -200               0             -200               0
1.58746               -0.2632271       -21.44981        -47.85244       -43.49014             -200               0             -200               0
1.59406               -0.2712882       -21.65718        -47.62562       -46.66096             -200               0             -200               0
1.60066               -0.2795574       -21.86733        -47.39695       -49.84025             -200               0             -200               0
1.60726               -0.2880387       -22.08038        -47.16657       -53.02985             -200               0             -200               0
1.61386               -0.2967422       -22.29648        -46.93464        -56.2314             -200               0             -200               0
1.62046               -0.3056805       -22.51578        -46.70134       -59.44631             -200               0             -200               0
1.62706               -0.3148674       -22.73841        -46.46689       -62.67578             -200               0             -200               0
1.63366               -0.3243198       -22.96453         -46.2315       -65.92075             -200               0             -200               0
1.64026               -0.3340589       -23.19427        -45.99539       -69.18191             -200               0             -200               0
1.64686               -0.3441064       -23.42778         -45.7588       -72.45974             -200               0             -200               0
1.65347               -0.3544892       -23.66516        -45.52194       -75.75446             -200               0             -200               0
1.66007               -0.3652326       -23.90656        -45.28504        -79.0661             -200               0             -200               0
1.66667               -0.3763678       -24.15206        -45.04831       -82.39448             -200               0             -200               0
1.67327               -0.3879257       -24.40175        -44.81194       -85.73924             -200               0             -200               0
1.67987               -0.3999393        -24.6557        -44.57609       -89.09986             -200               0             -200               0
1.68647               -0.4124425       -24.91397        -44.34093       -92.47567             -200               0             -200               0
1.69307               -0.4254679       -25.17659        -44.10659       -95.86591             -200               0             -200               0
1.69967               -0.4390532        -25.4436        -43.87318        -99.2697             -200               0             -200               0
1.70627                -0.453229       -25.71498        -43.64078       -102.6861             -200               0             -200               0
1.71287               -0.4680322       -25.99073        -43.40944       -106.1141             -200               0             -200               0
1.71947               -0.4834946       -26.27081        -43.17922       -109.5528             -200               0             -200               0
1.72607               -0.4996479       -26.55521        -42.95011        -113.001             -200               0             -200               0
1.73267               -0.5165229       -26.84384        -42.72209       -116.4579             -200               0             -200               0
1.73927               -0.5341477       -27.13667        -42.49514       -119.9224             -200               0             -200               0
1.74587               -0.5525487       -27.43361        -42.26919       -123.3937             -200               0             -200               0
1.75248               -0.5717504       -27.73461        -42.04416       -126.8709             -200               0             -200               0
1.75908               -0.5917753       -28.03958        -41.81994       -130.3532             -200               0             -200               0
1.76568               -0.6126428       -28.34847        -41.59643       -133.8402             -200               0             -200               0
1.77228               -0.6343714        -28.6612        -41.37347       -137.3311             -200               0             -200               0
1.77888               -0.6569773       -28.97773        -41.15094       -140.8258             -200               0             -200               0
1.78548               -0.6804762       -29.29801        -40.92868       -144.3239             -200               0             -200               0
1.79208               -0.7048806       -29.62202        -40.70651       -147.8253             -200               0             -200               0
1.79868               -0.7302035       -29.94973        -40.48428       -151.3301             -200               0             -200               0
1.80528               -0.7564566       -30.28116        -40.26182       -154.8385             -200               0             -200               0
1.81188               -0.7836531       -30.61633        -40.03895       -158.3508             -200               0             -200               0
1.81848               -0.8118054       -30.95529        -39.81551       -161.8677             -200               0             -200               0
1.82508               -0.8409278       -31.29812        -39.59135       -165.3897             -200               0             -200               0
1.83168               -0.8710358       -31.64489        -39.36632       -168.9177             -200               0             -200               0
1.83828               -0.9021476       -31.99572        -39.14029       -172.4526             -200               0             -200               0
1.84488               -0.9342853       -32.35075        -38.91314       -175.9956             -200               0             -200               0
1.85149               -0.9674739       -32.71012        -38.68477       -179.5478             -200               0             -200               0
1.85809                -1.001742       -33.07401         -38.4551        176.8894             -200               0             -200               0
1.86469                -1.037125       -33.44259        -38.22408        173.3148             -200               0             -200               0
1.87129                 -1.07366       -33.81606        -37.99165        169.7269             -200               0             -200               0
1.87789                -1.111395       -34.19462        -37.75782        166.1242             -200               0             -200               0
1.88449                -1.150378       -34.57847        -37.52259        162.5052             -200               0             -200               0
1.89109                -1.190669       -34.96781          -37.286        158.8685             -200               0             -200               0
1.89769                 -1.23233       -35.36283        -37.04811        155.2124             -200               0             -200               0
1.90429                -1.275433       -35.76371          -36.809        151.5357             -200               0             -200               0
1.91089                -1.320055       -36.17062        -36.56878        147.8368             -200               0             -200               0
1.91749                -1.366278       -36.58371        -36.32757        144.1145             -200               0             -200               0
1.92409                -1.414194       -37.00311        -36.08552        140.3675             -200               0             -200               0
1.93069                -1.463899       -37.42888        -35.84278        136.5946             -200               0             -200               0
1.93729                -1.515496        -37.8611        -35.59954        132.7948             -200               0             -200               0
1.94389                 -1.56909       -38.29979        -35.35599        128.9671             -200               0             -200               0
1.9505                 -1.624795       -38.74491        -35.11232        125.1108             -200               0             -200               0
1.9571                 -1.682731        -39.1964        -34.86876         121.225             -200               0             -200               0
1.9637                 -1.743015       -39.65415         -34.6255        117.3093             -200               0             -200               0
1.9703                 -1.805774       -40.11799        -34.38279        113.3631             -200               0             -200               0
1.9769                 -1.871134        -40.5877        -34.14083        109.3861             -200               0             -200               0
1.9835                 -1.939226       -41.06302        -33.89986        105.3781             -200               0             -200               0
1.9901                  -2.01018       -41.54362         -33.6601         101.339             -200               0             -200               0
1.9967                 -2.084129       -42.02912        -33.42176        97.26877             -200               0             -200               0
2.0033                 -2.161206       -42.51913        -33.18507         93.1675             -200               0             -200               0
2.0099                 -2.241544       -43.01313        -32.95024        89.03541             -200               0             -200               0
2.0165                 -2.325276       -43.51063        -32.71747        84.87276             -200               0             -200               0
2.0231                 -2.412535       -44.01103        -32.48696        80.67994             -200               0             -200               0
2.0297                 -2.503451       -44.51372        -32.25891        76.45737             -200               0             -200               0
2.0363                 -2.598157       -45.01803        -32.03349        72.20557             -200               0             -200               0
2.0429                 -2.696781       -45.52326        -31.81089         67.9251             -200               0             -200               0
2.0495                 -2.799451       -46.02867        -31.59126        63.61657             -200               0             -200               0
2.05611                -2.906296       -46.53346        -31.37476        59.28065             -200               0             -200               0
2.06271                -3.017442       -47.03681        -31.16154        54.91805             -200               0             -200               0
2.06931                -3.133017       -47.53788        -30.95175        50.52948             -200               0             -200               0
2.07591                -3.253144       -48.03576         -30.7455        46.11573             -200               0             -200               0
2.08251                -3.377954       -48.52955        -30.54292        41.67757             -200               0             -200               0
2.08911                -3.507573       -49.01828        -30.34413         37.2158             -200               0             -200               0
2.09571                -3.642133       -49.50098        -30.14923        32.73125             -200               0             -200               0
2.10231                -3.781766       -49.97662        -29.95832        28.22474             -200               0             -200               0
2.10891                -3.926611       -50.44414        -29.77148        23.69711             -200               0             -200               0
2.11551                 -4.07681       -50.90247         -29.5888        19.14919             -200               0             -200               0
2.12211                 -4.23251       -51.35045        -29.41036        14.58181             -200               0             -200               0
2.12871                -4.393871        -51.7869        -29.23622        9.995829             -200               0             -200               0
2.13531                -4.561056       -52.21056        -29.06645         5.39207             -200               0             -200               0
2.14191                -4.734242       -52.62011         -28.9011       0.7713618             -200               0             -200               0
2.14851                -4.913615       -53.01415        -28.74023       -3.865472             -200               0             -200               0
2.15512                -5.099378       -53.39119        -28.58389       -8.517614             -200               0             -200               0
2.16172                -5.291745        -53.7496        -28.43211       -13.18426             -200               0             -200               0
2.16832                -5.490951       -54.08764        -28.28494        -17.8646             -200               0             -200               0
2.17492                -5.697247       -54.40339        -28.14241       -22.55786             -200               0             -200               0
2.18152                -5.910902       -54.69473        -28.00454       -27.26325             -200               0             -200               0
2.18812                -6.132208       -54.95937        -27.87138       -31.98001             -200               0             -200               0
2.19472                -6.361479       -55.19469        -27.74292       -36.70738             -200               0             -200               0
2.20132                 -6.59905       -55.39779        -27.61921        -41.4446             -200               0             -200               0
2.20792                -6.845281       -55.56541        -27.50025       -46.19095             -200               0             -200               0
2.21452                -7.100553       -55.69385        -27.38606       -50.94569             -200               0             -200               0
2.22112                -7.365273       -55.77893        -27.27665       -55.70811             -200               0             -200               0
2.22772                -7.639864       -55.81587        -27.17203       -60.47749             -200               0             -200               0
2.23432                -7.924768       -55.79925        -27.07221       -65.25315             -200               0             -200               0
2.24092                -8.220441       -55.72281        -26.97719       -70.03438             -200               0             -200               0
2.24752                -8.527337       -55.57941        -26.88698       -74.82052             -200               0             -200               0
2.25413                -8.845911       -55.36083        -26.80157       -79.61088             -200               0             -200               0
2.26073                -9.176589       -55.05761        -26.72097       -84.40479             -200               0             -200               0
2.26733                -9.519757       -54.65887        -26.64517       -89.20161             -200               0             -200               0
2.27393                -9.875725       -54.15205        -26.57418       -94.00067             -200               0             -200               0
2.28053                -10.24469       -53.52272        -26.50798       -98.80133             -200               0             -200               0
2.28713                -10.62666       -52.75429        -26.44657        -103.603             -200               0             -200               0
2.29373                -11.02143       -51.82773        -26.38995       -108.4049             -200               0             -200               0