! TOUCHSTONE file generated by CST MICROWAVE STUDIO
! Date and time: Sat Mar  8 13:54:25 2025
! Project name: non_fractured.cst
! Parameters = {B=2.5; D=160; F=20; Feed=2.85625; L=100; M=5; R=0.384908; S=2.5; Theta=270; length=57.125; wave=114.25}
! Header version: 2024
! Port assignment regex: !\s*Touchstone port\s*([0-9]+)\s*=\s*(CST MWS port|CST DES external port|CST DES block port)\s*(.+)\s* \(\"(.*)\"\)(\s*mode\s*([0-9]+))?.*
! Touchstone port assignment:
! Touchstone port 1 = CST MWS port 1 ("")
! Touchstone port 2 = CST MWS port 2 ("")
# GHz S DB R 50
1                    -0.01832107       -9.747509         -68.8606       -135.9436             -200               0             -200               0
1.0066               -0.01904999       -9.836306        -68.38456       -139.3656             -200               0             -200               0
1.0132               -0.01983476       -9.925564        -67.93461       -142.9267             -200               0             -200               0
1.0198               -0.02067387       -10.01525        -67.51068       -146.6013             -200               0             -200               0
1.0264                -0.0215631       -10.10534        -67.11246       -150.3676             -200               0             -200               0
1.033                -0.02249608       -10.19581         -66.7395       -154.2059             -200               0             -200               0
1.0396               -0.02346878       -10.28663        -66.39125        -158.099             -200               0             -200               0
1.0462               -0.02447495       -10.37781        -66.06709       -162.0315             -200               0             -200               0
1.05281              -0.02550814       -10.46934        -65.76639       -165.9893             -200               0             -200               0
1.05941              -0.02656055       -10.56122        -65.48849       -169.9596             -200               0             -200               0
1.06601              -0.02762629       -10.65347        -65.23272       -173.9306             -200               0             -200               0
1.07261              -0.02869758       -10.74611        -64.99841       -177.8909             -200               0             -200               0
1.07921              -0.02976954       -10.83918        -64.78489        178.1701             -200               0             -200               0
1.08581               -0.0308365       -10.93271        -64.59144        174.2627             -200               0             -200               0
1.09241              -0.03189259       -11.02675        -64.41735         170.397             -200               0             -200               0
1.09901              -0.03293484       -11.12135        -64.26185        166.5828             -200               0             -200               0
1.10561              -0.03396056       -11.21656        -64.12413        162.8303             -200               0             -200               0
1.11221              -0.03496755       -11.31245        -64.00329        159.1491             -200               0             -200               0
1.11881              -0.03595495       -11.40908        -63.89836        155.5494             -200               0             -200               0
1.12541              -0.03692601       -11.50651        -63.80823        152.0411             -200               0             -200               0
1.13201              -0.03788091        -11.6048        -63.73165        148.6343             -200               0             -200               0
1.13861              -0.03882448       -11.70401         -63.6672         145.339             -200               0             -200               0
1.14521               -0.0397606       -11.80421        -63.61326        142.1649             -200               0             -200               0
1.15182              -0.04069633       -11.90544        -63.56797        139.1216             -200               0             -200               0
1.15842              -0.04163787       -12.00775        -63.52919        136.2177             -200               0             -200               0
1.16502              -0.04259326       -12.11118        -63.49452        133.4609             -200               0             -200               0
1.17162              -0.04357113       -12.21577        -63.46125        130.8574             -200               0             -200               0
1.17822              -0.04458049       -12.32153        -63.42639        128.4115             -200               0             -200               0
1.18482              -0.04562956       -12.42849        -63.38666        126.1246             -200               0             -200               0
1.19142              -0.04672933       -12.53664         -63.3386         123.995             -200               0             -200               0
1.19802              -0.04788655         -12.646        -63.27861        122.0171             -200               0             -200               0
1.20462              -0.04911028       -12.75653        -63.20309         120.181             -200               0             -200               0
1.21122              -0.05040927       -12.86824        -63.10861        118.4721             -200               0             -200               0
1.21782              -0.05178896       -12.98109        -62.99206        116.8713             -200               0             -200               0
1.22442              -0.05325701       -13.09506        -62.85088        115.3551             -200               0             -200               0
1.23102              -0.05481654       -13.21011        -62.68317        113.8969             -200               0             -200               0
1.23762              -0.05647148       -13.32619        -62.48789        112.4677             -200               0             -200               0
1.24422              -0.05822365       -13.44328        -62.26485        111.0378             -200               0             -200               0
1.25083              -0.06007382       -13.56132        -62.01481        109.5783             -200               0             -200               0
1.25743              -0.06202158       -13.68029         -61.7393        108.0624             -200               0             -200               0
1.26403               -0.0640636       -13.80014        -61.44056        106.4667             -200               0             -200               0
1.27063              -0.06619713       -13.92084        -61.12136        104.7719             -200               0             -200               0
1.27723              -0.06841774       -14.04238        -60.78478        102.9632             -200               0             -200               0
1.28383              -0.07071864       -14.16473        -60.43407        101.0307             -200               0             -200               0
1.29043              -0.07309478       -14.28787        -60.07246        98.96843             -200               0             -200               0
1.29703              -0.07553698       -14.41183        -59.70305        96.77447             -200               0             -200               0
1.30363               -0.0780398        -14.5366         -59.3287        94.45007             -200               0             -200               0
1.31023              -0.08059406        -14.6622        -58.95202        91.99904             -200               0             -200               0
1.31683              -0.08319223       -14.78867        -58.57528        89.42714             -200               0             -200               0
1.32343               -0.0858276       -14.91605        -58.20044        86.74156             -200               0             -200               0
1.33003              -0.08849247       -15.04439        -57.82916        83.95038             -200               0             -200               0
1.33663              -0.09118237       -15.17376        -57.46281        81.06226             -200               0             -200               0
1.34323              -0.09389133       -15.30423        -57.10249        78.08607             -200               0             -200               0
1.34984              -0.09661709       -15.43587        -56.74907        75.03071             -200               0             -200               0
1.35644              -0.09935667       -15.56878        -56.40321        71.90489             -200               0             -200               0
1.36304               -0.1021095       -15.70304        -56.06538        68.71708             -200               0             -200               0
1.36964               -0.1048773       -15.83874        -55.73592        65.47537             -200               0             -200               0
1.37624               -0.1076632       -15.97599        -55.41502        62.18743             -200               0             -200               0
1.38284               -0.1104722       -16.11486        -55.10274        58.86053             -200               0             -200               0
1.38944               -0.1133095       -16.25547        -54.79906        55.50145             -200               0             -200               0
1.39604               -0.1161847       -16.39788        -54.50387        52.11654             -200               0             -200               0
1.40264               -0.1191067        -16.5422        -54.21698         48.7117             -200               0             -200               0
1.40924                -0.122086       -16.68849        -53.93816        45.29238             -200               0             -200               0
1.41584               -0.1251354       -16.83681         -53.6671         41.8636             -200               0             -200               0
1.42244               -0.1282675       -16.98723        -53.40345        38.42996             -200               0             -200               0
1.42904               -0.1314959       -17.13979        -53.14682        34.99564             -200               0             -200               0
1.43564               -0.1348349       -17.29454         -52.8968        31.56443             -200               0             -200               0
1.44224                -0.138298        -17.4515        -52.65292        28.13971             -200               0             -200               0
1.44884                  -0.1419       -17.61069        -52.41471        24.72445             -200               0             -200               0
1.45545               -0.1456547       -17.77211        -52.18168        21.32124             -200               0             -200               0
1.46205               -0.1495734       -17.93575        -51.95329        17.93228             -200               0             -200               0
1.46865               -0.1536693       -18.10162        -51.72903        14.55936             -200               0             -200               0
1.47525               -0.1579532       -18.26969        -51.50836        11.20391             -200               0             -200               0
1.48185               -0.1624334       -18.43994        -51.29073        7.866958             -200               0             -200               0
1.48845                -0.167119       -18.61235        -51.07563        4.549141             -200               0             -200               0
1.49505                -0.172016       -18.78687         -50.8625        1.250727             -200               0             -200               0
1.50165               -0.1771288        -18.9635        -50.65085       -2.028389             -200               0             -200               0
1.50825                -0.182461       -19.14219        -50.44017       -5.288665             -200               0             -200               0
1.51485               -0.1880153       -19.32294        -50.22998       -8.530906             -200               0             -200               0
1.52145               -0.1937911       -19.50572        -50.01984       -11.75623             -200               0             -200               0
1.52805               -0.1997875       -19.69054        -49.80935       -14.96606             -200               0             -200               0
1.53465               -0.2060024       -19.87738        -49.59812       -18.16206             -200               0             -200               0
1.54125               -0.2124328       -20.06627        -49.38583       -21.34616             -200               0             -200               0
1.54785               -0.2190763       -20.25724        -49.17219       -24.52043             -200               0             -200               0
1.55446               -0.2259288       -20.45032        -48.95697       -27.68713             -200               0             -200               0
1.56106                -0.232986       -20.64557        -48.73998       -30.84859             -200               0             -200               0
1.56766               -0.2402465       -20.84305        -48.52109       -34.00723             -200               0             -200               0
1.57426               -0.2477071       -21.04286        -48.30022       -37.16544             -200               0             -200               0
1.58086               -0.2553674       -21.24507        -48.07734       -40.32561             -200               0             -200               0
1.58746               -0.2632274       -21.44981        -47.85246       -43.49004             -200               0             -200               0
1.59406               -0.2712892       -21.65719        -47.62563       -46.66089             -200               0             -200               0
1.60066               -0.2795575       -21.86734        -47.39696       -49.84021             -200               0             -200               0
1.60726               -0.2880395       -22.08039        -47.16657       -53.02983             -200               0             -200               0
1.61386               -0.2967429       -22.29649        -46.93464       -56.23141             -200               0             -200               0
1.62046               -0.3056814       -22.51578        -46.70134       -59.44634             -200               0             -200               0
1.62706               -0.3148682       -22.73841        -46.46688       -62.67584             -200               0             -200               0
1.63366               -0.3243206       -22.96453        -46.23149       -65.92083             -200               0             -200               0
1.64026               -0.3340598       -23.19428        -45.99538       -69.18202             -200               0             -200               0
1.64686               -0.3441072       -23.42778        -45.75878       -72.45986             -200               0             -200               0
1.65347               -0.3544904       -23.66517        -45.52193       -75.75461             -200               0             -200               0
1.66007               -0.3652334       -23.90657        -45.28503       -79.06627             -200               0             -200               0
1.66667               -0.3763692       -24.15207         -45.0483       -82.39466             -200               0             -200               0
1.67327               -0.3879271       -24.40175        -44.81192       -85.73944             -200               0             -200               0
1.67987               -0.3999408       -24.65571        -44.57608       -89.10007             -200               0             -200               0
1.68647               -0.4124433       -24.91398        -44.34092       -92.47589             -200               0             -200               0
1.69307               -0.4254699        -25.1766        -44.10657       -95.86614             -200               0             -200               0
1.69967               -0.4390537        -25.4436        -43.87316       -99.26994             -200               0             -200               0
1.70627               -0.4532307       -25.71498        -43.64076       -102.6863             -200               0             -200               0
1.71287                -0.468034       -25.99073        -43.40943       -106.1144             -200               0             -200               0
1.71947               -0.4834961       -26.27082         -43.1792        -109.553             -200               0             -200               0
1.72607               -0.4996505        -26.5552        -42.95009       -113.0013             -200               0             -200               0
1.73267               -0.5165256       -26.84384        -42.72208       -116.4582             -200               0             -200               0
1.73927               -0.5341504       -27.13666        -42.49513       -119.9227             -200               0             -200               0
1.74587               -0.5525502       -27.43361        -42.26918       -123.3939             -200               0             -200               0
1.75248               -0.5717524        -27.7346        -42.04415       -126.8711             -200               0             -200               0
1.75908                -0.591777       -28.03958        -41.81993       -130.3535             -200               0             -200               0
1.76568               -0.6126446       -28.34846        -41.59642       -133.8404             -200               0             -200               0
1.77228               -0.6343731        -28.6612        -41.37347       -137.3314             -200               0             -200               0
1.77888                -0.656978       -28.97773        -41.15094        -140.826             -200               0             -200               0
1.78548               -0.6804769       -29.29801        -40.92867       -144.3241             -200               0             -200               0
1.79208               -0.7048814       -29.62201        -40.70651       -147.8255             -200               0             -200               0
1.79868               -0.7302042       -29.94972        -40.48428       -151.3303             -200               0             -200               0
1.80528               -0.7564573       -30.28115        -40.26181       -154.8387             -200               0             -200               0
1.81188                -0.783654       -30.61632        -40.03894        -158.351             -200               0             -200               0
1.81848               -0.8118066       -30.95529        -39.81551       -161.8678             -200               0             -200               0
1.82508               -0.8409281       -31.29811        -39.59135       -165.3898             -200               0             -200               0
1.83168               -0.8710359       -31.64488        -39.36632       -168.9178             -200               0             -200               0
1.83828               -0.9021474       -31.99571        -39.14029       -172.4528             -200               0             -200               0
1.84488               -0.9342854       -32.35074        -38.91314       -175.9958             -200               0             -200               0
1.85149               -0.9674742       -32.71011        -38.68477        -179.548             -200               0             -200               0
1.85809                -1.001742         -33.074         -38.4551        176.8893             -200               0             -200               0
1.86469                -1.037124       -33.44259        -38.22407        173.3147             -200               0             -200               0
1.87129                 -1.07366       -33.81606        -37.99165        169.7268             -200               0             -200               0
1.87789                -1.111394       -34.19462        -37.75782        166.1241             -200               0             -200               0
1.88449                -1.150378       -34.57847        -37.52259        162.5051             -200               0             -200               0
1.89109                -1.190669       -34.96781          -37.286        158.8684             -200               0             -200               0
1.89769                 -1.23233       -35.36282        -37.04811        155.2124             -200               0             -200               0
1.90429                -1.275433       -35.76371          -36.809        151.5356             -200               0             -200               0
1.91089                -1.320053       -36.17062        -36.56878        147.8367             -200               0             -200               0
1.91749                -1.366277       -36.58372        -36.32757        144.1144             -200               0             -200               0
1.92409                -1.414193        -37.0031        -36.08551        140.3674             -200               0             -200               0
1.93069                -1.463898       -37.42889        -35.84278        136.5945             -200               0             -200               0
1.93729                -1.515494       -37.86111        -35.59954        132.7948             -200               0             -200               0
1.94389                -1.569089        -38.2998        -35.35599        128.9671             -200               0             -200               0
1.9505                 -1.624796       -38.74492        -35.11232        125.1108             -200               0             -200               0
1.9571                  -1.68273       -39.19641        -34.86875         121.225             -200               0             -200               0
1.9637                 -1.743015       -39.65416         -34.6255        117.3093             -200               0             -200               0
1.9703                 -1.805773       -40.11799        -34.38278        113.3631             -200               0             -200               0
1.9769                 -1.871134        -40.5877        -34.14083        109.3861             -200               0             -200               0
1.9835                 -1.939226       -41.06303        -33.89985        105.3781             -200               0             -200               0
1.9901                  -2.01018       -41.54363        -33.66009         101.339             -200               0             -200               0
1.9967                 -2.084129       -42.02914        -33.42176        97.26879             -200               0             -200               0
2.0033                 -2.161206       -42.51913        -33.18507        93.16752             -200               0             -200               0
2.0099                 -2.241544       -43.01314        -32.95024        89.03543             -200               0             -200               0
2.0165                 -2.325275       -43.51063        -32.71747        84.87279             -200               0             -200               0
2.0231                 -2.412534       -44.01104        -32.48696        80.67996             -200               0             -200               0
2.0297                 -2.503451       -44.51372        -32.25891         76.4574             -200               0             -200               0
2.0363                 -2.598157       -45.01804        -32.03349         72.2056             -200               0             -200               0
2.0429                 -2.696781       -45.52328        -31.81088        67.92513             -200               0             -200               0
2.0495                 -2.799452       -46.02868        -31.59125         63.6166             -200               0             -200               0
2.05611                -2.906296       -46.53347        -31.37476        59.28068             -200               0             -200               0
2.06271                -3.017442       -47.03683        -31.16154        54.91807             -200               0             -200               0
2.06931                -3.133017       -47.53789        -30.95174        50.52951             -200               0             -200               0
2.07591                -3.253145       -48.03577         -30.7455        46.11576             -200               0             -200               0
2.08251                -3.377955       -48.52955        -30.54292         41.6776             -200               0             -200               0
2.08911                -3.507573       -49.01829        -30.34413        37.21583             -200               0             -200               0
2.09571                -3.642133       -49.50098        -30.14923        32.73128             -200               0             -200               0
2.10231                -3.781766       -49.97663        -29.95832        28.22477             -200               0             -200               0
2.10891                -3.926611       -50.44416        -29.77148        23.69714             -200               0             -200               0
2.11551                 -4.07681       -50.90249         -29.5888        19.14921             -200               0             -200               0
2.12211                -4.232511       -51.35047        -29.41036        14.58184             -200               0             -200               0
2.12871                -4.393871       -51.78691        -29.23622        9.995854             -200               0             -200               0
2.13531                -4.561056       -52.21057        -29.06645        5.392091             -200               0             -200               0
2.14191                -4.734241       -52.62012         -28.9011       0.7713821             -200               0             -200               0
2.14851                -4.913615       -53.01417        -28.74024       -3.865452             -200               0             -200               0
2.15512                -5.099377       -53.39121        -28.58389       -8.517595             -200               0             -200               0
2.16172                -5.291745       -53.74962        -28.43212       -13.18424             -200               0             -200               0
2.16832                -5.490951       -54.08766        -28.28495       -17.86459             -200               0             -200               0
2.17492                -5.697247        -54.4034        -28.14241       -22.55784             -200               0             -200               0
2.18152                -5.910903       -54.69476        -28.00455       -27.26324             -200               0             -200               0
2.18812                -6.132209        -54.9594        -27.87138       -31.97999             -200               0             -200               0
2.19472                -6.361479       -55.19471        -27.74293       -36.70736             -200               0             -200               0
2.20132                -6.599051       -55.39782        -27.61922       -41.44459             -200               0             -200               0
2.20792                -6.845282       -55.56543        -27.50026       -46.19094             -200               0             -200               0
2.21452                -7.100555       -55.69387        -27.38607       -50.94568             -200               0             -200               0
2.22112                -7.365275       -55.77895        -27.27666        -55.7081             -200               0             -200               0
2.22772                -7.639866       -55.81591        -27.17204       -60.47749             -200               0             -200               0
2.23432                -7.924771       -55.79928        -27.07222       -65.25314             -200               0             -200               0
2.24092                -8.220442       -55.72283         -26.9772       -70.03438             -200               0             -200               0
2.24752                 -8.52734       -55.57943        -26.88698       -74.82051             -200               0             -200               0
2.25413                -8.845914       -55.36085        -26.80158       -79.61087             -200               0             -200               0
2.26073                -9.176592       -55.05763        -26.72098       -84.40479             -200               0             -200               0
2.26733                 -9.51976       -54.65889        -26.64518       -89.20161             -200               0             -200               0
2.27393                -9.875728       -54.15208        -26.57419       -94.00067             -200               0             -200               0
2.28053                -10.24469       -53.52274        -26.50799       -98.80133             -200               0             -200               0
2.28713                -10.62667       -52.75431        -26.44658        -103.603             -200               0             -200               0
2.29373                -11.02144       -51.82775        -26.38996       -108.4049             -200               0             -200               0