! TOUCHSTONE file generated by CST MICROWAVE STUDIO
! Date and time: Sat Mar  8 13:54:36 2025
! Project name: non_fractured.cst
! Parameters = {B=2.5; D=160; F=5; Feed=2.85625; L=100; M=10; R=0.384908; S=2; Theta=180; length=57.125; wave=114.25}
! Header version: 2024
! Port assignment regex: !\s*Touchstone port\s*([0-9]+)\s*=\s*(CST MWS port|CST DES external port|CST DES block port)\s*(.+)\s* \(\"(.*)\"\)(\s*mode\s*([0-9]+))?.*
! Touchstone port assignment:
! Touchstone port 1 = CST MWS port 1 ("")
! Touchstone port 2 = CST MWS port 2 ("")
# GHz S DB R 50
1                    -0.01846592       -9.740732        -68.52738       -113.5292             -200               0             -200               0
1.0066               -0.01901028       -9.829319         -67.9612        -118.929             -200               0             -200               0
1.0132               -0.01960678       -9.918548        -67.45103       -124.3411             -200               0             -200               0
1.0198                 -0.020258       -10.00838        -66.99212       -129.7548             -200               0             -200               0
1.0264               -0.02096239       -10.09879        -66.58065       -135.1614             -200               0             -200               0
1.033                -0.02172108       -10.18974        -66.21354       -140.5533             -200               0             -200               0
1.0396                -0.0225314        -10.2812        -65.88831       -145.9235             -200               0             -200               0
1.0462               -0.02339124       -10.37314        -65.60297       -151.2655             -200               0             -200               0
1.05281              -0.02429568       -10.46553        -65.35598        -156.573             -200               0             -200               0
1.05941              -0.02524083       -10.55837        -65.14613       -161.8394             -200               0             -200               0
1.06601               -0.0262215       -10.65162        -64.97252       -167.0581             -200               0             -200               0
1.07261              -0.02723126        -10.7453        -64.83456       -172.2217             -200               0             -200               0
1.07921              -0.02826293       -10.83939        -64.73189       -177.3222             -200               0             -200               0
1.08581              -0.02931168       -10.93392        -64.66438        177.6492             -200               0             -200               0
1.09241               -0.0303693       -11.02889        -64.63213        172.7027             -200               0             -200               0
1.09901              -0.03143044       -11.12434        -64.63544        167.8501             -200               0             -200               0
1.10561              -0.03248741       -11.22031         -64.6748        163.1051             -200               0             -200               0
1.11221              -0.03353685       -11.31682        -64.75086        158.4838             -200               0             -200               0
1.11881              -0.03457314       -11.41394        -64.86444        154.0056             -200               0             -200               0
1.12541              -0.03559197       -11.51172        -65.01644        149.6938             -200               0             -200               0
1.13201              -0.03659196       -11.61022        -65.20781        145.5765             -200               0             -200               0
1.13861              -0.03757152       -11.70951        -65.43945         141.688             -200               0             -200               0
1.14521              -0.03853058       -11.80966        -65.71198        138.0705             -200               0             -200               0
1.15182              -0.03946998       -11.91073        -66.02554        134.7757             -200               0             -200               0
1.15842              -0.04039351       -12.01279        -66.37927        131.8671             -200               0             -200               0
1.16502              -0.04130576       -12.11592        -66.77062        129.4218             -200               0             -200               0
1.17162              -0.04221119       -12.22017        -67.19427        127.5323             -200               0             -200               0
1.17822              -0.04311808       -12.32561        -67.64051        126.3051             -200               0             -200               0
1.18482              -0.04403332       -12.43229        -68.09308        125.8549             -200               0             -200               0
1.19142              -0.04496656       -12.54025        -68.52669        126.2888             -200               0             -200               0
1.19802               -0.0459273       -12.64953        -68.90512        127.6748             -200               0             -200               0
1.20462              -0.04692618       -12.76017        -69.18214        129.9945             -200               0             -200               0
1.21122              -0.04797378       -12.87218        -69.30797        133.0903             -200               0             -200               0
1.21782                -0.049081       -12.98556        -69.24236        136.6448             -200               0             -200               0
1.22442              -0.05025896       -13.10033        -68.96931        140.2273             -200               0             -200               0
1.23102              -0.05151711       -13.21647        -68.50396        143.4062             -200               0             -200               0
1.23762              -0.05286531       -13.33396        -67.88596        145.8613             -200               0             -200               0
1.24422              -0.05431346       -13.45278        -67.16475        147.4326             -200               0             -200               0
1.25083              -0.05586791       -13.57289         -66.3864        148.0997             -200               0             -200               0
1.25743              -0.05753558       -13.69426        -65.58702        147.9303             -200               0             -200               0
1.26403              -0.05932196       -13.81683        -64.79175        147.0315             -200               0             -200               0
1.27063              -0.06123019       -13.94056        -64.01665        145.5191             -200               0             -200               0
1.27723               -0.0632624        -14.0654        -63.27117        143.5008             -200               0             -200               0
1.28383               -0.0654191       -14.19131        -62.56029        141.0702             -200               0             -200               0
1.29043              -0.06769981       -14.31824        -61.88616        138.3061             -200               0             -200               0
1.29703               -0.0701001       -14.44615        -61.24921        135.2735             -200               0             -200               0
1.30363              -0.07261799         -14.575        -60.64882         132.026             -200               0             -200               0
1.31023              -0.07524655       -14.70477         -60.0838        128.6073             -200               0             -200               0
1.31683              -0.07798008       -14.83543        -59.55265        125.0538             -200               0             -200               0
1.32343               -0.0808112       -14.96698        -59.05375        121.3957             -200               0             -200               0
1.33003              -0.08373248       -15.09942        -58.58543        117.6585             -200               0             -200               0
1.33663              -0.08673503       -15.23276        -58.14605        113.8636             -200               0             -200               0
1.34323              -0.08981137       -15.36703          -57.734        110.0299             -200               0             -200               0
1.34984              -0.09295306       -15.50226        -57.34774        106.1734             -200               0             -200               0
1.35644               -0.0961536       -15.63852        -56.98578        102.3086             -200               0             -200               0
1.36304              -0.09940478       -15.77584        -56.64667        98.44823             -200               0             -200               0
1.36964               -0.1027025       -15.91432        -56.32899        94.60395             -200               0             -200               0
1.37624               -0.1060414       -16.05402        -56.03136        90.78639             -200               0             -200               0
1.38284               -0.1094207       -16.19504        -55.75239        87.00533             -200               0             -200               0
1.38944                -0.112838       -16.33747        -55.49068        83.26985             -200               0             -200               0
1.39604               -0.1162961       -16.48141        -55.24483        79.58841             -200               0             -200               0
1.40264               -0.1197975       -16.62695        -55.01336        75.96884             -200               0             -200               0
1.40924               -0.1233463        -16.7742        -54.79474        72.41836             -200               0             -200               0
1.41584               -0.1269513       -16.92326         -54.5874        68.94355             -200               0             -200               0
1.42244               -0.1306207       -17.07422        -54.38966        65.55024             -200               0             -200               0
1.42904               -0.1343651       -17.22717        -54.19974         62.2434             -200               0             -200               0
1.43564               -0.1381965       -17.38218        -54.01581        59.02705             -200               0             -200               0
1.44224               -0.1421309       -17.53934         -53.8359        55.90401             -200               0             -200               0
1.44884               -0.1461806       -17.69869          -53.658        52.87575             -200               0             -200               0
1.45545               -0.1503636       -17.86029        -53.48001        49.94223             -200               0             -200               0
1.46205               -0.1546955       -18.02417        -53.29982        47.10166             -200               0             -200               0
1.46865               -0.1591929       -18.19035        -53.11532        44.35038             -200               0             -200               0
1.47525               -0.1638706       -18.35884        -52.92445        41.68271             -200               0             -200               0
1.48185               -0.1687482       -18.52964        -52.72527        39.09098             -200               0             -200               0
1.48845               -0.1738366       -18.70273        -52.51599        36.56551             -200               0             -200               0
1.49505               -0.1791527       -18.87809        -52.29509        34.09483             -200               0             -200               0
1.50165                -0.184708       -19.05567        -52.06131         31.6659             -200               0             -200               0
1.50825               -0.1905118       -19.23544        -51.81374        29.26456             -200               0             -200               0
1.51485                -0.196576       -19.41734        -51.55186        26.87589             -200               0             -200               0
1.52145               -0.2029041       -19.60132        -51.27551        24.48479             -200               0             -200               0
1.52805               -0.2095037       -19.78734        -50.98493        22.07648             -200               0             -200               0
1.53465               -0.2163758       -19.97535        -50.68072        19.63699             -200               0             -200               0
1.54125               -0.2235208       -20.16529         -50.3638        17.15358             -200               0             -200               0
1.54785               -0.2309389       -20.35712        -50.03535        14.61513             -200               0             -200               0
1.55446               -0.2386257       -20.55083        -49.69677         12.0123             -200               0             -200               0
1.56106               -0.2465755       -20.74638        -49.34957        9.337693             -200               0             -200               0
1.56766               -0.2547826        -20.9438        -48.99537        6.585854             -200               0             -200               0
1.57426               -0.2632416       -21.14307        -48.63578          3.7532             -200               0             -200               0
1.58086               -0.2719424       -21.34424        -48.27239       0.8378764             -200               0             -200               0
1.58746               -0.2808776       -21.54736        -47.90673       -2.160424             -200               0             -200               0
1.59406               -0.2900408       -21.75248        -47.54023       -5.240677             -200               0             -200               0
1.60066               -0.2994252       -21.95971         -47.1742        -8.40074             -200               0             -200               0
1.60726               -0.3090233       -22.16913        -46.80982       -11.63757             -200               0             -200               0
1.61386               -0.3188329       -22.38088        -46.44815       -14.94741             -200               0             -200               0
1.62046               -0.3288529        -22.5951         -46.0901       -18.32597             -200               0             -200               0
1.62706                -0.339082       -22.81192        -45.73646       -21.76861             -200               0             -200               0
1.63366               -0.3495255       -23.03153        -45.38789       -25.27041             -200               0             -200               0
1.64026               -0.3601896       -23.25409        -45.04493       -28.82632             -200               0             -200               0
1.64686               -0.3710849       -23.47978        -44.70802       -32.43126             -200               0             -200               0
1.65347               -0.3822248       -23.70878         -44.3775       -36.08014             -200               0             -200               0
1.66007               -0.3936272       -23.94128        -44.05362       -39.76797             -200               0             -200               0
1.66667               -0.4053128       -24.17745        -43.73654       -43.48986             -200               0             -200               0
1.67327               -0.4173056       -24.41746        -43.42636       -47.24105             -200               0             -200               0
1.67987               -0.4296332       -24.66148         -43.1231         -51.017             -200               0             -200               0
1.68647               -0.4423285       -24.90964        -42.82672        -54.8133             -200               0             -200               0
1.69307               -0.4554231       -25.16208        -42.53712       -58.62579             -200               0             -200               0
1.69967               -0.4689526        -25.4189        -42.25418       -62.45048             -200               0             -200               0
1.70627                -0.482957       -25.68021        -41.97769       -66.28365             -200               0             -200               0
1.71287               -0.4974744       -25.94605        -41.70742       -70.12175             -200               0             -200               0
1.71947               -0.5125449       -26.21648        -41.44312       -73.96152             -200               0             -200               0
1.72607               -0.5282077       -26.49152        -41.18445       -77.79992             -200               0             -200               0
1.73267               -0.5445041       -26.77116         -40.9311       -81.63415             -200               0             -200               0
1.73927               -0.5614717       -27.05538        -40.68268       -85.46169             -200               0             -200               0
1.74587               -0.5791485       -27.34414         -40.4388       -89.28029             -200               0             -200               0
1.75248               -0.5975695       -27.63736        -40.19903       -93.08797             -200               0             -200               0
1.75908               -0.6167688       -27.93497        -39.96294       -96.88305             -200               0             -200               0
1.76568               -0.6367744       -28.23688        -39.73005       -100.6642             -200               0             -200               0
1.77228                -0.657615       -28.54299        -39.49989       -104.4302             -200               0             -200               0
1.77888               -0.6793139        -28.8532        -39.27197       -108.1805             -200               0             -200               0
1.78548               -0.7018908        -29.1674         -39.0458       -111.9147             -200               0             -200               0
1.79208               -0.7253624       -29.48551        -38.82086       -115.6326             -200               0             -200               0
1.79868               -0.7497418       -29.80743        -38.59668       -119.3347             -200               0             -200               0
1.80528               -0.7750397       -30.13308        -38.37275       -123.0215             -200               0             -200               0
1.81188               -0.8012626       -30.46243         -38.1486        -126.694             -200               0             -200               0
1.81848               -0.8284169       -30.79545         -37.9238       -130.3537             -200               0             -200               0
1.82508                -0.856505       -31.13214        -37.69789       -134.0021             -200               0             -200               0
1.83168               -0.8855296       -31.47253        -37.47049       -137.6414             -200               0             -200               0
1.83828               -0.9154915       -31.81669        -37.24125       -141.2736             -200               0             -200               0
1.84488                -0.946395       -32.16472        -37.00984       -144.9015             -200               0             -200               0
1.85149               -0.9782433       -32.51679          -36.776       -148.5277             -200               0             -200               0
1.85809                -1.011043       -32.87305        -36.53951       -152.1551             -200               0             -200               0
1.86469                -1.044806       -33.23375        -36.30021       -155.7869             -200               0             -200               0
1.87129                -1.079547       -33.59915          -36.058       -159.4261             -200               0             -200               0
1.87789                -1.115284       -33.96954        -35.81282       -163.0761             -200               0             -200               0
1.88449                -1.152047       -34.34525        -35.56469       -166.7399             -200               0             -200               0
1.89109                -1.189871       -34.72665        -35.31366       -170.4207             -200               0             -200               0
1.89769                -1.228799        -35.1141        -35.05986       -174.1215             -200               0             -200               0
1.90429                -1.268884       -35.50803        -34.80345       -177.8453             -200               0             -200               0
1.91089                -1.310189       -35.90884        -34.54463        178.4054             -200               0             -200               0
1.91749                -1.352789       -36.31694        -34.28366        174.6279             -200               0             -200               0
1.92409                -1.396768       -36.73275        -34.02082          170.82             -200               0             -200               0
1.93069                -1.442222       -37.15666        -33.75642        166.9798             -200               0             -200               0
1.93729                -1.489259       -37.58905        -33.49081        163.1054             -200               0             -200               0
1.94389                -1.537998       -38.03029        -33.22433        159.1954             -200               0             -200               0
1.9505                 -1.588571       -38.48067        -32.95735        155.2485             -200               0             -200               0
1.9571                 -1.641118       -38.94046        -32.69024        151.2639             -200               0             -200               0
1.9637                 -1.695792       -39.40989        -32.42338        147.2408             -200               0             -200               0
1.9703                 -1.752754        -39.8891        -32.15713        143.1787             -200               0             -200               0
1.9769                 -1.812178       -40.37819        -31.89187        139.0774             -200               0             -200               0
1.9835                 -1.874243       -40.87717        -31.62796         134.937             -200               0             -200               0
1.9901                 -1.939136       -41.38597        -31.36572        130.7575             -200               0             -200               0
1.9967                 -2.007052       -41.90446        -31.10551        126.5394             -200               0             -200               0
2.0033                 -2.078193       -42.43239        -30.84764        122.2831             -200               0             -200               0
2.0099                 -2.152763       -42.96945        -30.59239        117.9893             -200               0             -200               0
2.0165                 -2.230972       -43.51523        -30.34007        113.6587             -200               0             -200               0
2.0231                 -2.313033       -44.06921        -30.09092        109.2922             -200               0             -200               0
2.0297                 -2.399162       -44.63081        -29.84521        104.8907             -200               0             -200               0
2.0363                 -2.489573       -45.19932        -29.60315        100.4553             -200               0             -200               0
2.0429                 -2.584486       -45.77396        -29.36496        95.98693             -200               0             -200               0
2.0495                 -2.684117       -46.35386        -29.13084        91.48679             -200               0             -200               0
2.05611                -2.788682       -46.93802        -28.90096          86.956             -200               0             -200               0
2.06271                -2.898398       -47.52541        -28.67549        82.39572             -200               0             -200               0
2.06931                -3.013478       -48.11488        -28.45457        77.80714             -200               0             -200               0
2.07591                -3.134139       -48.70517        -28.23834        73.19143             -200               0             -200               0
2.08251                -3.260589       -49.29497        -28.02691        68.54979             -200               0             -200               0
2.08911                 -3.39304       -49.88287        -27.82041         63.8834             -200               0             -200               0
2.09571                -3.531702       -50.46737        -27.61892        59.19344             -200               0             -200               0
2.10231                -3.676781       -51.04691        -27.42254        54.48106             -200               0             -200               0
2.10891                -3.828486        -51.6198        -27.23134        49.74741             -200               0             -200               0
2.11551                -3.987025       -52.18431        -27.04538        44.99362             -200               0             -200               0
2.12211                -4.152606       -52.73857        -26.86474        40.22079             -200               0             -200               0
2.12871                 -4.32544       -53.28067        -26.68945        35.43003             -200               0             -200               0
2.13531                -4.505743       -53.80856        -26.51958         30.6224             -200               0             -200               0
2.14191                -4.693729       -54.32008        -26.35515        25.79893             -200               0             -200               0
2.14851                -4.889624       -54.81296         -26.1962        20.96065             -200               0             -200               0
2.15512                -5.093657       -55.28481        -26.04275        16.10855             -200               0             -200               0
2.16172                -5.306066       -55.73306        -25.89484        11.24363             -200               0             -200               0
2.16832                -5.527101       -56.15498        -25.75249        6.366819             -200               0             -200               0
2.17492                -5.757022       -56.54766         -25.6157        1.479063             -200               0             -200               0
2.18152                -5.996102       -56.90793        -25.48449        -3.41873             -200               0             -200               0
2.18812                 -6.24463       -57.23237        -25.35887       -8.325665             -200               0             -200               0
2.19472                -6.502911       -57.51727        -25.23884       -13.24087             -200               0             -200               0
2.20132                -6.771269       -57.75852        -25.12442       -18.16349             -200               0             -200               0
2.20792                -7.050045       -57.95159         -25.0156       -23.09268             -200               0             -200               0
2.21452                -7.339598       -58.09148        -24.91238       -28.02763             -200               0             -200               0
2.22112                -7.640305       -58.17255        -24.81476       -32.96753             -200               0             -200               0
2.22772                -7.952558       -58.18848        -24.72273       -37.91157             -200               0             -200               0
2.23432                -8.276758       -58.13211         -24.6363       -42.85898             -200               0             -200               0
2.24092                -8.613313       -57.99528        -24.55545         -47.809             -200               0             -200               0
2.24752                -8.962616       -57.76872        -24.48017       -52.76086             -200               0             -200               0
2.25413                -9.325037       -57.44172        -24.41047       -57.71381             -200               0             -200               0
2.26073                -9.700897       -57.00202        -24.34632        -62.6671             -200               0             -200               0
2.26733                -10.09043       -56.43544        -24.28772       -67.62001             -200               0             -200               0
2.27393                -10.49373       -55.72565        -24.23466       -72.57181             -200               0             -200               0
2.28053                -10.91068       -54.85377        -24.18712       -77.52177             -200               0             -200               0
2.28713                -11.34088       -53.79813        -24.14508       -82.46916             -200               0             -200               0
2.29373                -11.78349       -52.53391        -24.10855       -87.41329             -200               0             -200               0