! TOUCHSTONE file generated by CST MICROWAVE STUDIO
! Date and time: Sat Mar  8 13:54:10 2025
! Project name: non_fractured.cst
! Parameters = {B=2.5; D=160; F=15; Feed=2.85625; L=100; M=5; R=0.384908; S=1; Theta=270; length=57.125; wave=114.25}
! Header version: 2024
! Port assignment regex: !\s*Touchstone port\s*([0-9]+)\s*=\s*(CST MWS port|CST DES external port|CST DES block port)\s*(.+)\s* \(\"(.*)\"\)(\s*mode\s*([0-9]+))?.*
! Touchstone port assignment:
! Touchstone port 1 = CST MWS port 1 ("")
! Touchstone port 2 = CST MWS port 2 ("")
# GHz S DB R 50
1                    -0.01726757       -9.765872        -65.99758       -93.23845             -200               0             -200               0
1.0066               -0.01799468       -9.855881        -65.37412       -99.75978             -200               0             -200               0
1.0132                -0.0188046       -9.946325        -64.80823       -106.1619             -200               0             -200               0
1.0198               -0.01969363       -10.03714        -64.29458       -112.4592             -200               0             -200               0
1.0264               -0.02065631       -10.12826        -63.82884       -118.6617             -200               0             -200               0
1.033                -0.02168442       -10.21965        -63.40746       -124.7771             -200               0             -200               0
1.0396               -0.02276951       -10.31125        -63.02757       -130.8105             -200               0             -200               0
1.0462               -0.02390187       -10.40304        -62.68677       -136.7651             -200               0             -200               0
1.05281              -0.02506976         -10.495        -62.38314       -142.6428             -200               0             -200               0
1.05941              -0.02626125       -10.58712        -62.11509       -148.4442             -200               0             -200               0
1.06601              -0.02746477       -10.67941        -61.88135       -154.1687             -200               0             -200               0
1.07261              -0.02866697        -10.7719         -61.6809       -159.8146             -200               0             -200               0
1.07921              -0.02985712       -10.86462        -61.51299       -165.3791             -200               0             -200               0
1.08581              -0.03102405       -10.95761        -61.37702       -170.8581             -200               0             -200               0
1.09241              -0.03215772       -11.05096        -61.27261       -176.2466             -200               0             -200               0
1.09901              -0.03325029       -11.14472        -61.19951         178.462             -200               0             -200               0
1.10561                -0.034292       -11.23899        -61.15763        173.2756             -200               0             -200               0
1.11221              -0.03528059       -11.33385        -61.14697        168.2038             -200               0             -200               0
1.11881              -0.03621206       -11.42942        -61.16766        163.2583             -200               0             -200               0
1.12541              -0.03708463       -11.52578        -61.21984         158.453             -200               0             -200               0
1.13201               -0.0379008       -11.62305        -61.30371        153.8048             -200               0             -200               0
1.13861              -0.03866496       -11.72134         -61.4194        149.3335             -200               0             -200               0
1.14521              -0.03938106       -11.82074        -61.56693        145.0631             -200               0             -200               0
1.15182              -0.04005947       -11.92135        -61.74605        141.0218             -200               0             -200               0
1.15842              -0.04070746       -12.02325        -61.95607        137.2434             -200               0             -200               0
1.16502              -0.04134006       -12.12654        -62.19564        133.7677             -200               0             -200               0
1.17162               -0.0419694       -12.23126        -62.46232         130.641             -200               0             -200               0
1.17822              -0.04260961       -12.33748        -62.75215        127.9163             -200               0             -200               0
1.18482              -0.04327774       -12.44524        -63.05892        125.6521             -200               0             -200               0
1.19142              -0.04398838       -12.55456        -63.37339        123.9101             -200               0             -200               0
1.19802              -0.04475963       -12.66545        -63.68236        122.7484             -200               0             -200               0
1.20462                -0.045606       -12.77791        -63.96795         122.212             -200               0             -200               0
1.21122              -0.04654352        -12.8919        -64.20747        122.3161             -200               0             -200               0
1.21782              -0.04758673        -13.0074        -64.37466        123.0278             -200               0             -200               0
1.22442              -0.04874889       -13.12435        -64.44281         124.248             -200               0             -200               0
1.23102              -0.05004192        -13.2427        -64.38987        125.8069             -200               0             -200               0
1.23762               -0.0514747       -13.36238        -64.20392        127.4798             -200               0             -200               0
1.24422              -0.05305442       -13.48332        -63.88659        129.0253             -200               0             -200               0
1.25083              -0.05478929       -13.60541        -63.45258        130.2295             -200               0             -200               0
1.25743               -0.0566789        -13.7286         -62.9254        130.9403             -200               0             -200               0
1.26403              -0.05872576       -13.85278        -62.33181        131.0765             -200               0             -200               0
1.27063              -0.06092698       -13.97789        -61.69715        130.6196             -200               0             -200               0
1.27723              -0.06327974       -14.10384        -61.04271        129.5949             -200               0             -200               0
1.28383              -0.06577818       -14.23056        -60.38487        128.0524             -200               0             -200               0
1.29043              -0.06841226         -14.358        -59.73548        126.0531             -200               0             -200               0
1.29703              -0.07117457        -14.4861        -59.10264        123.6592             -200               0             -200               0
1.30363               -0.0740514       -14.61484        -58.49161        120.9294             -200               0             -200               0
1.31023              -0.07703313       -14.74421        -57.90557        117.9163             -200               0             -200               0
1.31683              -0.08010707       -14.87418        -57.34629        114.6663             -200               0             -200               0
1.32343              -0.08325782       -15.00479        -56.81452        111.2193             -200               0             -200               0
1.33003              -0.08647515       -15.13605         -56.3104        107.6095             -200               0             -200               0
1.33663              -0.08974591       -15.26803         -55.8336        103.8664             -200               0             -200               0
1.34323               -0.0930598       -15.40077        -55.38357        100.0151             -200               0             -200               0
1.34984              -0.09640552       -15.53436        -54.95957        96.07755             -200               0             -200               0
1.35644               -0.0997755       -15.66888        -54.56079        92.07266             -200               0             -200               0
1.36304                -0.103164       -15.80444        -54.18636        88.01705             -200               0             -200               0
1.36964               -0.1065671       -15.94114         -53.8354        83.92549             -200               0             -200               0
1.37624                -0.109982       -16.07909        -53.50704        79.81119             -200               0             -200               0
1.38284               -0.1134106       -16.21842        -53.20039        75.68612             -200               0             -200               0
1.38944               -0.1168559       -16.35924         -52.9146        71.56127             -200               0             -200               0
1.39604               -0.1203243       -16.50167        -52.64881        67.44687             -200               0             -200               0
1.40264               -0.1238236       -16.64582        -52.40217        63.35251             -200               0             -200               0
1.40924               -0.1273643       -16.79178        -52.17381        59.28731             -200               0             -200               0
1.41584               -0.1309591       -16.93967        -51.96286        55.26003             -200               0             -200               0
1.42244               -0.1346222       -17.08955         -51.7684        51.27911             -200               0             -200               0
1.42904               -0.1383694       -17.24151        -51.58949        47.35281             -200               0             -200               0
1.43564               -0.1422168       -17.39559        -51.42511        43.48914             -200               0             -200               0
1.44224               -0.1461824       -17.55183        -51.27421        39.69596             -200               0             -200               0
1.44884               -0.1502838       -17.71025        -51.13559        35.98089             -200               0             -200               0
1.45545               -0.1545381       -17.87086          -51.008         32.3513             -200               0             -200               0
1.46205               -0.1589605       -18.03366        -50.89002        28.81422             -200               0             -200               0
1.46865               -0.1635681       -18.19861        -50.78014        25.37618             -200               0             -200               0
1.47525                -0.168374       -18.36569        -50.67667        22.04311             -200               0             -200               0
1.48185               -0.1733904       -18.53485        -50.57775        18.82007             -200               0             -200               0
1.48845               -0.1786269       -18.70603        -50.48139        15.71106             -200               0             -200               0
1.49505               -0.1840907       -18.87916        -50.38544         12.7187             -200               0             -200               0
1.50165                -0.189788        -19.0542        -50.28758        9.843941             -200               0             -200               0
1.50825                 -0.19572       -19.23106        -50.18542        7.085747             -200               0             -200               0
1.51485               -0.2018868        -19.4097        -50.07649        4.440817             -200               0             -200               0
1.52145               -0.2082849       -19.59006        -49.95832        1.903329             -200               0             -200               0
1.52805               -0.2149104       -19.77209        -49.82853      -0.5352122             -200               0             -200               0
1.53465               -0.2217537       -19.95576        -49.68487       -2.886003             -200               0             -200               0
1.54125               -0.2288063       -20.14106        -49.52539       -5.162818             -200               0             -200               0
1.54785               -0.2360568         -20.328        -49.34845       -7.381702             -200               0             -200               0
1.55446               -0.2434927       -20.51658        -49.15285       -9.560499             -200               0             -200               0
1.56106               -0.2511017       -20.70686        -48.93789       -11.71823             -200               0             -200               0
1.56766               -0.2588696        -20.8989        -48.70337       -13.87435             -200               0             -200               0
1.57426               -0.2667854        -21.0928        -48.44962         -16.048             -200               0             -200               0
1.58086               -0.2748359       -21.28867        -48.17746       -18.25725             -200               0             -200               0
1.58746               -0.2830119       -21.48665        -47.88814       -20.51847             -200               0             -200               0
1.59406               -0.2913057        -21.6869        -47.58326       -22.84583             -200               0             -200               0
1.60066               -0.2997116       -21.88959        -47.26469       -25.25099             -200               0             -200               0
1.60726               -0.3082281       -22.09494        -46.93446       -27.74295             -200               0             -200               0
1.61386               -0.3168565       -22.30314        -46.59468       -30.32806             -200               0             -200               0
1.62046                -0.325602       -22.51444        -46.24745       -33.01016             -200               0             -200               0
1.62706               -0.3344751       -22.72905         -45.8948       -35.79088             -200               0             -200               0
1.63366               -0.3434899       -22.94721        -45.53864       -38.66984             -200               0             -200               0
1.64026               -0.3526641       -23.16917        -45.18074       -41.64505             -200               0             -200               0
1.64686               -0.3620244       -23.39516         -44.8227       -44.71323             -200               0             -200               0
1.65347               -0.3715957       -23.62539        -44.46591       -47.87002             -200               0             -200               0
1.66007               -0.3814109       -23.86009         -44.1116       -51.11039             -200               0             -200               0
1.66667               -0.3915061       -24.09944         -43.7608       -54.42872             -200               0             -200               0
1.67327               -0.4019223       -24.34363         -43.4144       -57.81913             -200               0             -200               0
1.67987               -0.4127025        -24.5928        -43.07311       -61.27554             -200               0             -200               0
1.68647               -0.4238915       -24.84708         -42.7375       -64.79184             -200               0             -200               0
1.69307               -0.4355384       -25.10659        -42.40801       -68.36198             -200               0             -200               0
1.69967               -0.4476915       -25.37137        -42.08496       -71.98004             -200               0             -200               0
1.70627               -0.4604004       -25.64148        -41.76859       -75.64028             -200               0             -200               0
1.71287               -0.4737168       -25.91693        -41.45901        -79.3372             -200               0             -200               0
1.71947               -0.4876899        -26.1977        -41.15627       -83.06554             -200               0             -200               0
1.72607               -0.5023679       -26.48375        -40.86035        -86.8203             -200               0             -200               0
1.73267               -0.5177987         -26.775        -40.57115       -90.59679             -200               0             -200               0
1.73927               -0.5340266       -27.07136        -40.28853       -94.39059             -200               0             -200               0
1.74587               -0.5510928       -27.37271        -40.01227       -98.19758             -200               0             -200               0
1.75248               -0.5690359       -27.67893        -39.74214        -102.014             -200               0             -200               0
1.75908               -0.5878918       -27.98987        -39.47785       -105.8362             -200               0             -200               0
1.76568                -0.607692       -28.30538        -39.21907       -109.6611             -200               0             -200               0
1.77228                -0.628462       -28.62529        -38.96545       -113.4858             -200               0             -200               0
1.77888                 -0.65023       -28.94947         -38.7166       -117.3077             -200               0             -200               0
1.78548               -0.6730108       -29.27776        -38.47211       -121.1245             -200               0             -200               0
1.79208               -0.6968242       -29.61002        -38.23154       -124.9343             -200               0             -200               0
1.79868               -0.7216824       -29.94613        -37.99445       -128.7356             -200               0             -200               0
1.80528               -0.7475953       -30.28599        -37.76038       -132.5269             -200               0             -200               0
1.81188               -0.7745725       -30.62951        -37.52885       -136.3076             -200               0             -200               0
1.81848               -0.8026189       -30.97664         -37.2994       -140.0768             -200               0             -200               0
1.82508               -0.8317414       -31.32736        -37.07152       -143.8345             -200               0             -200               0
1.83168               -0.8619439       -31.68167        -36.84477       -147.5808             -200               0             -200               0
1.83828               -0.8932329       -32.03961        -36.61867        -151.316             -200               0             -200               0
1.84488               -0.9256157       -32.40126        -36.39278       -155.0411             -200               0             -200               0
1.85149               -0.9591028       -32.76671        -36.16667       -158.7572             -200               0             -200               0
1.85809               -0.9937069       -33.13609        -35.93994       -162.4657             -200               0             -200               0
1.86469                -1.029444       -33.50959        -35.71223       -166.1683             -200               0             -200               0
1.87129                -1.066337       -33.88739        -35.48319       -169.8671             -200               0             -200               0
1.87789                -1.104414       -34.26971        -35.25253       -173.5643             -200               0             -200               0
1.88449                -1.143709       -34.65677        -35.02001       -177.2624             -200               0             -200               0
1.89109                -1.184262       -35.04885        -34.78543        179.0362             -200               0             -200               0
1.89769                -1.226123        -35.4462        -34.54864        175.3285             -200               0             -200               0
1.90429                -1.269348       -35.84907        -34.30953        171.6119             -200               0             -200               0
1.91089                -1.314002       -36.25774        -34.06806        167.8834             -200               0             -200               0
1.91749                 -1.36016       -36.67246        -33.82424        164.1402             -200               0             -200               0
1.92409                -1.407902       -37.09346        -33.57812        160.3797             -200               0             -200               0
1.93069                -1.457319       -37.52098         -33.3298        156.5989             -200               0             -200               0
1.93729                -1.508511       -37.95518        -33.07943        152.7955             -200               0             -200               0
1.94389                -1.561584       -38.39625         -32.8272        148.9669             -200               0             -200               0
1.9505                 -1.616651       -38.84428        -32.57332        145.1109             -200               0             -200               0
1.9571                 -1.673836       -39.29936        -32.31806        141.2256             -200               0             -200               0
1.9637                 -1.733267        -39.7615         -32.0617        137.3091             -200               0             -200               0
1.9703                 -1.795077       -40.23068        -31.80453        133.3599             -200               0             -200               0
1.9769                 -1.859406       -40.70682        -31.54688        129.3765             -200               0             -200               0
1.9835                 -1.926397       -41.18977        -31.28908         125.358             -200               0             -200               0
1.9901                 -1.996199       -41.67933        -31.03146        121.3035             -200               0             -200               0
1.9967                 -2.068961       -42.17522        -30.77437        117.2123             -200               0             -200               0
2.0033                 -2.144838       -42.67714        -30.51814         113.084             -200               0             -200               0
2.0099                 -2.223985       -43.18468        -30.26311        108.9184             -200               0             -200               0
2.0165                 -2.306556        -43.6974         -30.0096        104.7156             -200               0             -200               0
2.0231                 -2.392712       -44.21479        -29.75794        100.4756             -200               0             -200               0
2.0297                 -2.482606       -44.73626        -29.50842        96.19886             -200               0             -200               0
2.0363                 -2.576399        -45.2612        -29.26135        91.88573             -200               0             -200               0
2.0429                 -2.674245       -45.78893          -29.017        87.53683             -200               0             -200               0
2.0495                 -2.776302       -46.31872        -28.77563        83.15287             -200               0             -200               0
2.05611                -2.882726       -46.84979        -28.53749        78.73463             -200               0             -200               0
2.06271                -2.993674        -47.3813        -28.30282        74.28298             -200               0             -200               0
2.06931                -3.109301       -47.91238        -28.07182        69.79888             -200               0             -200               0
2.07591                -3.229763       -48.44213         -27.8447        65.28329             -200               0             -200               0
2.08251                -3.355219       -48.96958        -27.62164        60.73728             -200               0             -200               0
2.08911                 -3.48583       -49.49373        -27.40282        56.16191             -200               0             -200               0
2.09571                -3.621755       -50.01355        -27.18839        51.55826             -200               0             -200               0
2.10231                -3.763163       -50.52794         -26.9785        46.92747             -200               0             -200               0
2.10891                -3.910226       -51.03579        -26.77326        42.27066             -200               0             -200               0
2.11551                 -4.06312       -51.53592        -26.57281        37.58894             -200               0             -200               0
2.12211                -4.222031        -52.0271        -26.37725        32.88345             -200               0             -200               0
2.12871                -4.387155       -52.50803        -26.18667        28.15531             -200               0             -200               0
2.13531                -4.558695       -52.97737        -26.00116        23.40563             -200               0             -200               0
2.14191                -4.736874       -53.43367        -25.82079        18.63552             -200               0             -200               0
2.14851                -4.921923       -53.87539        -25.64565        13.84606             -200               0             -200               0
2.15512                -5.114095       -54.30086        -25.47578        9.038322             -200               0             -200               0
2.16172                -5.313659       -54.70831        -25.31124        4.213367             -200               0             -200               0
2.16832                -5.520907       -55.09577        -25.15208      -0.6277731             -200               0             -200               0
2.17492                -5.736154       -55.46111        -24.99834       -5.484078             -200               0             -200               0
2.18152                -5.959739       -55.80194        -24.85006       -10.35455             -200               0             -200               0
2.18812                -6.192032       -56.11562        -24.70726       -15.23821             -200               0             -200               0
2.19472                 -6.43343       -56.39919        -24.56997        -20.1341             -200               0             -200               0
2.20132                -6.684361       -56.64929        -24.43822       -25.04127             -200               0             -200               0
2.20792                -6.945287       -56.86213        -24.31203       -29.95881             -200               0             -200               0
2.21452                -7.216701       -57.03338         -24.1914        -34.8858             -200               0             -200               0
2.22112                -7.499129       -57.15806        -24.07635       -39.82135             -200               0             -200               0
2.22772                -7.793127       -57.23051        -23.96689        -44.7646             -200               0             -200               0
2.23432                -8.099283       -57.24412        -23.86303       -49.71469             -200               0             -200               0
2.24092                  -8.4182       -57.19129        -23.76478       -54.67078             -200               0             -200               0
2.24752                  -8.7505       -57.06322        -23.67212       -59.63202             -200               0             -200               0
2.25413                  -9.0968       -56.84962        -23.58508       -64.59762             -200               0             -200               0
2.26073                -9.457695       -56.53856        -23.50363       -69.56675             -200               0             -200               0
2.26733                 -9.83373       -56.11609        -23.42779       -74.53862             -200               0             -200               0
2.27393                -10.22535       -55.56595        -23.35755       -79.51245             -200               0             -200               0
2.28053                -10.63285       -54.86911         -23.2929       -84.48746             -200               0             -200               0
2.28713                -11.05627       -54.00349        -23.23384       -89.46287             -200               0             -200               0
2.29373                -11.49529       -52.94338        -23.18035       -94.43791             -200               0             -200               0