! TOUCHSTONE file generated by CST MICROWAVE STUDIO
! Date and time: Sat Mar  8 13:55:26 2025
! Project name: non_fractured.cst
! Parameters = {B=2.5; D=160; F=15; Feed=2.85625; L=100; M=20; R=0.384908; S=2.5; Theta=180; length=57.125; wave=114.25}
! Header version: 2024
! Port assignment regex: !\s*Touchstone port\s*([0-9]+)\s*=\s*(CST MWS port|CST DES external port|CST DES block port)\s*(.+)\s* \(\"(.*)\"\)(\s*mode\s*([0-9]+))?.*
! Touchstone port assignment:
! Touchstone port 1 = CST MWS port 1 ("")
! Touchstone port 2 = CST MWS port 2 ("")
# GHz S DB R 50
1                    -0.01878743       -9.744944        -68.65041       -148.1099             -200               0             -200               0
1.0066               -0.01960473       -9.833352        -68.41715       -151.9463             -200               0             -200               0
1.0132               -0.02046768       -9.922139        -68.20248       -155.7302             -200               0             -200               0
1.0198               -0.02137455       -10.01128         -68.0053       -159.4525             -200               0             -200               0
1.0264                -0.0223155       -10.10077        -67.82444       -163.1045             -200               0             -200               0
1.033                -0.02328786        -10.1906        -67.65867       -166.6775             -200               0             -200               0
1.0396                -0.0242835       -10.28076        -67.50662       -170.1631             -200               0             -200               0
1.0462               -0.02529725       -10.37127        -67.36684       -173.5532             -200               0             -200               0
1.05281              -0.02632103       -10.46214        -67.23769       -176.8401             -200               0             -200               0
1.05941              -0.02734962       -10.55341        -67.11741        179.9835             -200               0             -200               0
1.06601              -0.02837609       -10.64509        -67.00402         176.924             -200               0             -200               0
1.07261              -0.02939793       -10.73724        -66.89536        173.9867             -200               0             -200               0
1.07921              -0.03040868       -10.82989        -66.78908        171.1756             -200               0             -200               0
1.08581              -0.03140611        -10.9231        -66.68266        168.4929             -200               0             -200               0
1.09241              -0.03238808       -11.01693         -66.5734        165.9386             -200               0             -200               0
1.09901              -0.03335408       -11.11142        -66.45852        163.5104             -200               0             -200               0
1.10561              -0.03430338       -11.20663        -66.33519        161.2029             -200               0             -200               0
1.11221              -0.03523789       -11.30264        -66.20061        159.0076             -200               0             -200               0
1.11881              -0.03616003       -11.39949        -66.05216        156.9127             -200               0             -200               0
1.12541              -0.03707546       -11.49724        -65.88746        154.9033             -200               0             -200               0
1.13201              -0.03798768       -11.59594        -65.70455        152.9616             -200               0             -200               0
1.13861              -0.03890303       -11.69564        -65.50192        151.0674             -200               0             -200               0
1.14521              -0.03982745       -11.79638        -65.27867         149.199             -200               0             -200               0
1.15182              -0.04077132       -11.89818        -65.03451        147.3339             -200               0             -200               0
1.15842              -0.04174097       -12.00109        -64.76979        145.4498             -200               0             -200               0
1.16502              -0.04274302       -12.10511        -64.48545        143.5259             -200               0             -200               0
1.17162              -0.04378954       -12.21025        -64.18297        141.5432             -200               0             -200               0
1.17822              -0.04488711       -12.31652        -63.86426        139.4853             -200               0             -200               0
1.18482              -0.04604264       -12.42391        -63.53153        137.3391             -200               0             -200               0
1.19142              -0.04726367        -12.5324        -63.18718        135.0947             -200               0             -200               0
1.19802              -0.04855979       -12.64198        -62.83372        132.7452             -200               0             -200               0
1.20462              -0.04993265       -12.75262        -62.47359        130.2869             -200               0             -200               0
1.21122              -0.05139002       -12.86429        -62.10919        127.7186             -200               0             -200               0
1.21782              -0.05293293       -12.97696        -61.74272        125.0415             -200               0             -200               0
1.22442              -0.05456682       -13.09059        -61.37621        122.2587             -200               0             -200               0
1.23102              -0.05629015       -13.20514        -61.01149        119.3745             -200               0             -200               0
1.23762              -0.05810354       -13.32058        -60.65014        116.3947             -200               0             -200               0
1.24422               -0.0600055       -13.43687        -60.29355        113.3255             -200               0             -200               0
1.25083               -0.0619928         -13.554        -59.94289         110.174             -200               0             -200               0
1.25743              -0.06406257       -13.67193        -59.59914        106.9474             -200               0             -200               0
1.26403              -0.06620963       -13.79064        -59.26309        103.6531             -200               0             -200               0
1.27063              -0.06842845       -13.91012        -58.93541        100.2984             -200               0             -200               0
1.27723              -0.07071223       -14.03038        -58.61658        96.89083             -200               0             -200               0
1.28383               -0.0730558       -14.15142        -58.30699        93.43744             -200               0             -200               0
1.29043              -0.07545156       -14.27325         -58.0069        89.94529             -200               0             -200               0
1.29703              -0.07789205       -14.39591        -57.71647        86.42117             -200               0             -200               0
1.30363               -0.0803742       -14.51942        -57.43578        82.87163             -200               0             -200               0
1.31023              -0.08288809       -14.64383        -57.16483        79.30301             -200               0             -200               0
1.31683              -0.08543094       -14.76919        -56.90355        75.72137             -200               0             -200               0
1.32343              -0.08799796       -14.89556        -56.65178        72.13256             -200               0             -200               0
1.33003              -0.09058613       -15.02301        -56.40934        68.54217             -200               0             -200               0
1.33663              -0.09319281        -15.1516        -56.17596        64.95556             -200               0             -200               0
1.34323              -0.09581848       -15.28142        -55.95133        61.37786             -200               0             -200               0
1.34984              -0.09846288       -15.41253        -55.73508        57.81395             -200               0             -200               0
1.35644               -0.1011296       -15.54503        -55.52681        54.26848             -200               0             -200               0
1.36304               -0.1038204       -15.67898        -55.32604        50.74583             -200               0             -200               0
1.36964               -0.1065423       -15.81446        -55.13226        47.25014             -200               0             -200               0
1.37624               -0.1093012       -15.95154         -54.9449        43.78524             -200               0             -200               0
1.38284               -0.1121033        -16.0903        -54.76334        40.35465             -200               0             -200               0
1.38944               -0.1149594       -16.23079        -54.58692        36.96154             -200               0             -200               0
1.39604               -0.1178757       -16.37307        -54.41493        33.60873             -200               0             -200               0
1.40264               -0.1208664       -16.51718        -54.24662        30.29857             -200               0             -200               0
1.40924               -0.1239386       -16.66316        -54.08119        27.03299             -200               0             -200               0
1.41584                -0.127104       -16.81105        -53.91781        23.81338             -200               0             -200               0
1.42244               -0.1303734       -16.96087        -53.75563         20.6406             -200               0             -200               0
1.42904               -0.1337586       -17.11262        -53.59375        17.51488             -200               0             -200               0
1.43564               -0.1372661       -17.26632        -53.43129        14.43581             -200               0             -200               0
1.44224               -0.1409076       -17.42197        -53.26736        11.40233             -200               0             -200               0
1.44884                 -0.14469       -17.57955        -53.10109        8.412651             -200               0             -200               0
1.45545                -0.148621       -17.73907        -52.93162        5.464299             -200               0             -200               0
1.46205               -0.1527057        -17.9005        -52.75817        2.554105             -200               0             -200               0
1.46865               -0.1569494       -18.06383        -52.57998      -0.3217672             -200               0             -200               0
1.47525               -0.1613545       -18.22905        -52.39639       -3.167761             -200               0             -200               0
1.48185               -0.1659238       -18.39615        -52.20685        -5.98886             -200               0             -200               0
1.48845                -0.170657       -18.56512        -52.01087       -8.790495             -200               0             -200               0
1.49505               -0.1755545       -18.73596        -51.80813       -11.57843             -200               0             -200               0
1.50165               -0.1806131       -18.90867        -51.59838       -14.35864             -200               0             -200               0
1.50825               -0.1858323       -19.08326        -51.38154       -17.13719             -200               0             -200               0
1.51485                -0.191209       -19.25978        -51.15764       -19.92007             -200               0             -200               0
1.52145               -0.1967375       -19.43824        -50.92681       -22.71309             -200               0             -200               0
1.52805               -0.2024152       -19.61869        -50.68933       -25.52176             -200               0             -200               0
1.53465               -0.2082387        -19.8012        -50.44556       -28.35117             -200               0             -200               0
1.54125               -0.2142041       -19.98584        -50.19596       -31.20588             -200               0             -200               0
1.54785               -0.2203103       -20.17269        -49.94106       -34.08992             -200               0             -200               0
1.55446               -0.2265536       -20.36185        -49.68143       -37.00665             -200               0             -200               0
1.56106               -0.2329353       -20.55344        -49.41772       -39.95883             -200               0             -200               0
1.56766                -0.239457       -20.74755        -49.15056       -42.94854             -200               0             -200               0
1.57426               -0.2461216       -20.94433        -48.88061       -45.97724             -200               0             -200               0
1.58086               -0.2529352       -21.14391        -48.60853       -49.04578             -200               0             -200               0
1.58746               -0.2599052       -21.34641        -48.33495       -52.15445             -200               0             -200               0
1.59406               -0.2670391         -21.552        -48.06047       -55.30301             -200               0             -200               0
1.60066               -0.2743526       -21.76082        -47.78567       -58.49076             -200               0             -200               0
1.60726               -0.2818601         -21.973        -47.51108       -61.71662             -200               0             -200               0
1.61386               -0.2895755       -22.18869        -47.23718       -64.97914             -200               0             -200               0
1.62046               -0.2975224       -22.40802        -46.96441       -68.27659             -200               0             -200               0
1.62706               -0.3057185       -22.63113        -46.69313         -71.607             -200               0             -200               0
1.63366               -0.3141906       -22.85812        -46.42367       -74.96824             -200               0             -200               0
1.64026               -0.3229633       -23.08912        -46.15632       -78.35803             -200               0             -200               0
1.64686               -0.3320633       -23.32422        -45.89129         -81.774             -200               0             -200               0
1.65347               -0.3415183       -23.56351        -45.62875       -85.21374             -200               0             -200               0
1.66007               -0.3513596       -23.80706        -45.36882       -88.67483             -200               0             -200               0
1.66667               -0.3616142       -24.05492        -45.11157       -92.15486             -200               0             -200               0
1.67327               -0.3723139       -24.30714        -44.85704       -95.65147             -200               0             -200               0
1.67987               -0.3834885       -24.56376         -44.6052        -99.1624             -200               0             -200               0
1.68647               -0.3951677        -24.8248        -44.35601       -102.6855             -200               0             -200               0
1.69307               -0.4073814       -25.09026        -44.10939       -106.2186             -200               0             -200               0
1.69967               -0.4201576       -25.36015        -43.86519       -109.7599             -200               0             -200               0
1.70627                -0.433522       -25.63445        -43.62328       -113.3077             -200               0             -200               0
1.71287               -0.4475033       -25.91316        -43.38347       -116.8603             -200               0             -200               0
1.71947               -0.4621264       -26.19625        -43.14556       -120.4164             -200               0             -200               0
1.72607               -0.4774116        -26.4837        -42.90931       -123.9747             -200               0             -200               0
1.73267               -0.4933836        -26.7755        -42.67449       -127.5344             -200               0             -200               0
1.73927               -0.5100635       -27.07163        -42.44084       -131.0947             -200               0             -200               0
1.74587               -0.5274687       -27.37207        -42.20809        -134.655             -200               0             -200               0
1.75248                -0.545619       -27.67683        -41.97596       -138.2151             -200               0             -200               0
1.75908               -0.5645327       -27.98591        -41.74418        -141.775             -200               0             -200               0
1.76568               -0.5842253       -28.29934        -41.51248       -145.3348             -200               0             -200               0
1.77228               -0.6047161       -28.61714        -41.28058       -148.8949             -200               0             -200               0
1.77888               -0.6260219       -28.93937        -41.04823       -152.4561             -200               0             -200               0
1.78548               -0.6481619       -29.26608        -40.81519       -156.0191             -200               0             -200               0
1.79208               -0.6711541       -29.59735        -40.58121       -159.5852             -200               0             -200               0
1.79868               -0.6950214       -29.93329        -40.34611       -163.1554             -200               0             -200               0
1.80528               -0.7197857       -30.27399        -40.10969       -166.7314             -200               0             -200               0
1.81188               -0.7454736       -30.61958        -39.87179       -170.3146             -200               0             -200               0
1.81848                -0.772115       -30.97021        -39.63231       -173.9067             -200               0             -200               0
1.82508               -0.7997417       -31.32601        -39.39113       -177.5096             -200               0             -200               0
1.83168               -0.8283916       -31.68715         -39.1482        178.8748             -200               0             -200               0
1.83828               -0.8581046       -32.05379         -38.9035        175.2446             -200               0             -200               0
1.84488               -0.8889268        -32.4261        -38.65703        171.5979             -200               0             -200               0
1.85149                 -0.92091       -32.80423        -38.40882        167.9327             -200               0             -200               0
1.85809               -0.9541092       -33.18837        -38.15895        164.2471             -200               0             -200               0
1.86469               -0.9885857       -33.57867        -37.90753        160.5394             -200               0             -200               0
1.87129                -1.024406       -33.97526        -37.65469        156.8077             -200               0             -200               0
1.87789                -1.061641       -34.37828        -37.40058        153.0505             -200               0             -200               0
1.88449                 -1.10037       -34.78785        -37.14539        149.2662             -200               0             -200               0
1.89109                -1.140674       -35.20406        -36.88933        145.4533             -200               0             -200               0
1.89769                 -1.18264       -35.62696        -36.63261        141.6108             -200               0             -200               0
1.90429                 -1.22636        -36.0566        -36.37547        137.7375             -200               0             -200               0
1.91089                -1.271931       -36.49298        -36.11816        133.8325             -200               0             -200               0
1.91749                -1.319452       -36.93607        -35.86094         129.895             -200               0             -200               0
1.92409                -1.369028       -37.38581        -35.60406        125.9244             -200               0             -200               0
1.93069                -1.420764       -37.84208         -35.3478        121.9204             -200               0             -200               0
1.93729                -1.474771       -38.30474        -35.09241        117.8825             -200               0             -200               0
1.94389                -1.531161       -38.77361        -34.83817        113.8108             -200               0             -200               0
1.9505                 -1.590046       -39.24845        -34.58533        109.7051             -200               0             -200               0
1.9571                 -1.651543       -39.72901        -34.33414        105.5657             -200               0             -200               0
1.9637                 -1.715768       -40.21495        -34.08486        101.3926             -200               0             -200               0
1.9703                 -1.782837       -40.70594        -33.83771        97.18646             -200               0             -200               0
1.9769                 -1.852868       -41.20157        -33.59293        92.94754             -200               0             -200               0
1.9835                 -1.925977       -41.70142        -33.35073        88.67642             -200               0             -200               0
1.9901                 -2.002283       -42.20499        -33.11132        84.37374             -200               0             -200               0
1.9967                 -2.081901       -42.71179        -32.87491        80.04018             -200               0             -200               0
2.0033                  -2.16495       -43.22127        -32.64166        75.67649             -200               0             -200               0
2.0099                 -2.251543       -43.73284        -32.41176        71.28345             -200               0             -200               0
2.0165                 -2.341797       -44.24589        -32.18537        66.86193             -200               0             -200               0
2.0231                 -2.435827       -44.75978        -31.96263        62.41278             -200               0             -200               0
2.0297                  -2.53375       -45.27381         -31.7437        57.93691             -200               0             -200               0
2.0363                 -2.635681       -45.78729        -31.52869        53.43526             -200               0             -200               0
2.0429                 -2.741735       -46.29947        -31.31772        48.90874             -200               0             -200               0
2.0495                 -2.852031       -46.80959        -31.11091        44.35833             -200               0             -200               0
2.05611                -2.966687       -47.31685        -30.90836        39.78497             -200               0             -200               0
2.06271                -3.085825       -47.82041        -30.71016        35.18963             -200               0             -200               0
2.06931                -3.209566        -48.3194        -30.51638        30.57326             -200               0             -200               0
2.07591                 -3.33804       -48.81292        -30.32711        25.93682             -200               0             -200               0
2.08251                -3.471378       -49.30004        -30.14241        21.28127             -200               0             -200               0
2.08911                -3.609715       -49.77975        -29.96234        16.60756             -200               0             -200               0
2.09571                -3.753191       -50.25103        -29.78696         11.9166             -200               0             -200               0
2.10231                -3.901956       -50.71277        -29.61632         7.20933             -200               0             -200               0
2.10891                -4.056164       -51.16382        -29.45045        2.486662             -200               0             -200               0
2.11551                 -4.21598       -51.60293         -29.2894       -2.250506             -200               0             -200               0
2.12211                -4.381574       -52.02878        -29.13319       -7.001286             -200               0             -200               0
2.12871                -4.553129       -52.43996        -28.98185       -11.76481             -200               0             -200               0
2.13531                -4.730835        -52.8349        -28.83541        -16.5402             -200               0             -200               0
2.14191                -4.914897       -53.21193        -28.69389       -21.32664             -200               0             -200               0
2.14851                -5.105527       -53.56925         -28.5573       -26.12327             -200               0             -200               0
2.15512                 -5.30295       -53.90485        -28.42565       -30.92928             -200               0             -200               0
2.16172                -5.507405       -54.21651        -28.29896       -35.74386             -200               0             -200               0
2.16832                -5.719138       -54.50182        -28.17722       -40.56623             -200               0             -200               0
2.17492                -5.938411       -54.75809        -28.06045       -45.39559             -200               0             -200               0
2.18152                -6.165494       -54.98233        -27.94864       -50.23118             -200               0             -200               0
2.18812                -6.400664       -55.17122        -27.84179       -55.07224             -200               0             -200               0
2.19472                -6.644207       -55.32103         -27.7399       -59.91802             -200               0             -200               0
2.20132                -6.896413       -55.42763        -27.64297       -64.76779             -200               0             -200               0
2.20792                -7.157573       -55.48636        -27.55097        -69.6208             -200               0             -200               0
2.21452                -7.427969       -55.49202        -27.46392       -74.47636             -200               0             -200               0
2.22112                -7.707874       -55.43876        -27.38178       -79.33374             -200               0             -200               0
2.22772                -7.997536          -55.32        -27.30455       -84.19223             -200               0             -200               0
2.23432                -8.297172       -55.12837        -27.23222       -89.05116             -200               0             -200               0
2.24092                -8.606949       -54.85557        -27.16476       -93.90981             -200               0             -200               0
2.24752                 -8.92696       -54.49229        -27.10216       -98.76752             -200               0             -200               0
2.25413                -9.257204        -54.0281        -27.04439       -103.6236             -200               0             -200               0
2.26073                 -9.59755       -53.45133        -26.99144       -108.4774             -200               0             -200               0
2.26733                -9.947689       -52.74899        -26.94328       -113.3282             -200               0             -200               0
2.27393                -10.30709       -51.90665        -26.89989       -118.1753             -200               0             -200               0
2.28053                -10.67491       -50.90852        -26.86123       -123.0182             -200               0             -200               0
2.28713                -11.04996       -49.73733        -26.82728       -127.8561             -200               0             -200               0
2.29373                -11.43053       -48.37469          -26.798       -132.6884             -200               0             -200               0