! TOUCHSTONE file generated by CST MICROWAVE STUDIO
! Date and time: Sat Mar  8 13:54:06 2025
! Project name: non_fractured.cst
! Parameters = {B=2.5; D=160; F=10; Feed=2.85625; L=100; M=5; R=0.384908; S=2.5; Theta=0; length=57.125; wave=114.25}
! Header version: 2024
! Port assignment regex: !\s*Touchstone port\s*([0-9]+)\s*=\s*(CST MWS port|CST DES external port|CST DES block port)\s*(.+)\s* \(\"(.*)\"\)(\s*mode\s*([0-9]+))?.*
! Touchstone port assignment:
! Touchstone port 1 = CST MWS port 1 ("")
! Touchstone port 2 = CST MWS port 2 ("")
# GHz S DB R 50
1                    -0.01864508        -9.74855        -67.33611       -109.0113             -200               0             -200               0
1.00662              -0.01928418       -9.837233        -66.75306       -114.1831             -200               0             -200               0
1.01325              -0.01997074       -9.926475        -66.22062       -119.3776             -200               0             -200               0
1.01987              -0.02070353       -10.01625        -65.73445       -124.5823             -200               0             -200               0
1.02649              -0.02148239       -10.10653        -65.29095       -129.7866             -200               0             -200               0
1.03311              -0.02230497        -10.1973        -64.88716       -134.9815             -200               0             -200               0
1.03974              -0.02316788       -10.28854         -64.5206       -140.1592             -200               0             -200               0
1.04636              -0.02406805       -10.38022        -64.18919       -145.3122             -200               0             -200               0
1.05298              -0.02500023       -10.47235        -63.89118       -150.4338             -200               0             -200               0
1.0596               -0.02596063       -10.56491         -63.6251       -155.5175             -200               0             -200               0
1.06623              -0.02694406       -10.65791        -63.38969       -160.5565             -200               0             -200               0
1.07285              -0.02794385       -10.75136        -63.18391       -165.5441             -200               0             -200               0
1.07947              -0.02895544       -10.84527        -63.00686       -170.4734             -200               0             -200               0
1.08609              -0.02997472       -10.93966        -62.85777       -175.3369             -200               0             -200               0
1.09272              -0.03099369       -11.03456        -62.73599        179.8734             -200               0             -200               0
1.09934              -0.03200984       -11.13001        -62.64092        175.1663             -200               0             -200               0
1.10596               -0.0330189       -11.22604        -62.57203        170.5512             -200               0             -200               0
1.11258              -0.03401685       -11.32271         -62.5288        166.0389             -200               0             -200               0
1.11921              -0.03500174       -11.42007        -62.51071        161.6411             -200               0             -200               0
1.12583               -0.0359723       -11.51816        -62.51715        157.3709             -200               0             -200               0
1.13245               -0.0369278       -11.61706        -62.54743         153.243             -200               0             -200               0
1.13907              -0.03786893       -11.71681        -62.60068        149.2738             -200               0             -200               0
1.1457               -0.03879742       -11.81748        -62.67577        145.4815             -200               0             -200               0
1.15232              -0.03971695       -11.91913        -62.77121        141.8861             -200               0             -200               0
1.15894              -0.04063141        -12.0218        -62.88506        138.5097             -200               0             -200               0
1.16556              -0.04154506       -12.12557        -63.01472        135.3756             -200               0             -200               0
1.17219              -0.04246554       -12.23047        -63.15681        132.5083             -200               0             -200               0
1.17881              -0.04339946       -12.33655        -63.30695        129.9324             -200               0             -200               0
1.18543              -0.04435383       -12.44385        -63.45958        127.6709             -200               0             -200               0
1.19205              -0.04533768        -12.5524        -63.60779        125.7431             -200               0             -200               0
1.19868              -0.04635984       -12.66223        -63.74331        124.1609             -200               0             -200               0
1.2053               -0.04742892       -12.77335        -63.85657        122.9258             -200               0             -200               0
1.21192              -0.04855425       -12.88577        -63.93709         122.024             -200               0             -200               0
1.21854              -0.04974432       -12.99949        -63.97419         121.423             -200               0             -200               0
1.22517              -0.05100755       -13.11451        -63.95795        121.0696             -200               0             -200               0
1.23179              -0.05235236       -13.23081         -63.8805         120.891             -200               0             -200               0
1.23841              -0.05378596       -13.34838        -63.73704        120.7999             -200               0             -200               0
1.24503               -0.0553137       -13.46719        -63.52668        120.7018             -200               0             -200               0
1.25166              -0.05694256       -13.58722        -63.25253        120.5057             -200               0             -200               0
1.25828              -0.05867559       -13.70842        -62.92118        120.1326             -200               0             -200               0
1.2649               -0.06051643       -13.83077        -62.54168        119.5216             -200               0             -200               0
1.27152              -0.06246714       -13.95424        -62.12429        118.6329             -200               0             -200               0
1.27815               -0.0645283       -14.07878        -61.67944        117.4464             -200               0             -200               0
1.28477              -0.06669973       -14.20438        -61.21683        115.9586             -200               0             -200               0
1.29139              -0.06897975       -14.33099        -60.74501        114.1789             -200               0             -200               0
1.29801              -0.07136535        -14.4586         -60.2711        112.1248             -200               0             -200               0
1.30464               -0.0738533       -14.58719        -59.80087        109.8194             -200               0             -200               0
1.31126              -0.07643909       -14.71675        -59.33878        107.2878             -200               0             -200               0
1.31788              -0.07911749       -14.84727        -58.88823         104.556             -200               0             -200               0
1.3245               -0.08188426       -14.97877         -58.4517        101.6494             -200               0             -200               0
1.33113              -0.08473279       -15.11124        -58.03092        98.59191             -200               0             -200               0
1.33775              -0.08765867       -15.24473        -57.62709        95.40607             -200               0             -200               0
1.34437              -0.09065468       -15.37924        -57.24093        92.11257             -200               0             -200               0
1.35099               -0.0937172       -15.51484        -56.87282        88.73038             -200               0             -200               0
1.35762              -0.09684157       -15.65156        -56.52287        85.27686             -200               0             -200               0
1.36424               -0.1000251       -15.78946          -56.191         81.7679             -200               0             -200               0
1.37086               -0.1032635       -15.92861        -55.87695        78.21809             -200               0             -200               0
1.37748               -0.1065563       -16.06907        -55.58034        74.64087             -200               0             -200               0
1.38411               -0.1099043       -16.21091        -55.30069        71.04868             -200               0             -200               0
1.39073                -0.113307       -16.35421        -55.03741        67.45308             -200               0             -200               0
1.39735               -0.1167682       -16.49905        -54.78984        63.86489             -200               0             -200               0
1.40397                -0.120292       -16.64551        -54.55725        60.29429             -200               0             -200               0
1.4106                -0.1238823       -16.79365         -54.3388        56.75084             -200               0             -200               0
1.41722               -0.1275475       -16.94355         -54.1336         53.2436             -200               0             -200               0
1.42384               -0.1312957       -17.09529        -53.94066        49.78108             -200               0             -200               0
1.43046               -0.1351348       -17.24893         -53.7589         46.3713             -200               0             -200               0
1.43709               -0.1390754       -17.40451        -53.58712        43.02169             -200               0             -200               0
1.44371                -0.143128       -17.56211        -53.42405        39.73912             -200               0             -200               0
1.45033               -0.1473054       -17.72175        -53.26826        36.52972             -200               0             -200               0
1.45695               -0.1516175       -17.88347        -53.11825        33.39882             -200               0             -200               0
1.46358               -0.1560767       -18.04729        -52.97238        30.35079             -200               0             -200               0
1.4702                -0.1606953       -18.21325        -52.82889        27.38887             -200               0             -200               0
1.47682               -0.1654846       -18.38133        -52.68595        24.51497             -200               0             -200               0
1.48344                -0.170454       -18.55155        -52.54164        21.72953             -200               0             -200               0
1.49007               -0.1756149       -18.72391        -52.39398        19.03126             -200               0             -200               0
1.49669               -0.1809753       -18.89838        -52.24099        16.41706             -200               0             -200               0
1.50331               -0.1865444       -19.07497        -52.08074        13.88185             -200               0             -200               0
1.50993               -0.1923274       -19.25366        -51.91136        11.41855             -200               0             -200               0
1.51656               -0.1983308       -19.43442        -51.73117        9.018135             -200               0             -200               0
1.52318               -0.2045583       -19.61725        -51.53868        6.669761             -200               0             -200               0
1.5298                -0.2110114       -19.80213        -51.33269        4.361019             -200               0             -200               0
1.53642               -0.2176933       -19.98906        -51.11229        2.078291             -200               0             -200               0
1.54305               -0.2246033       -20.17803        -50.87697      -0.1928162             -200               0             -200               0
1.54967               -0.2317413       -20.36906        -50.62656       -2.466972             -200               0             -200               0
1.55629                -0.239105       -20.56215        -50.36127       -4.758625             -200               0             -200               0
1.56291               -0.2466925       -20.75734        -50.08168       -7.081497             -200               0             -200               0
1.56954               -0.2545013       -20.95466        -49.78867       -9.448174             -200               0             -200               0
1.57616               -0.2625289       -21.15418         -49.4834       -11.86974             -200               0             -200               0
1.58278               -0.2707722       -21.35595        -49.16721       -14.35555             -200               0             -200               0
1.5894                 -0.279231       -21.56005        -48.84162        -16.9131             -200               0             -200               0
1.59603               -0.2879037       -21.76658         -48.5082       -19.54796             -200               0             -200               0
1.60265                -0.296791       -21.97564        -48.16856       -22.26389             -200               0             -200               0
1.60927               -0.3058953       -22.18735         -47.8243       -25.06294             -200               0             -200               0
1.61589               -0.3152197       -22.40184        -47.47692       -27.94558             -200               0             -200               0
1.62252               -0.3247717       -22.61923        -47.12788         -30.911             -200               0             -200               0
1.62914               -0.3345594       -22.83969        -46.77848       -33.95721             -200               0             -200               0
1.63576               -0.3445935       -23.06335        -46.42992       -37.08134             -200               0             -200               0
1.64238               -0.3548885       -23.29037        -46.08327        -40.2798             -200               0             -200               0
1.64901               -0.3654615       -23.52089        -45.73945       -43.54843             -200               0             -200               0
1.65563               -0.3763323       -23.75509        -45.39926       -46.88271             -200               0             -200               0
1.66225               -0.3875226       -23.99308        -45.06338       -50.27785             -200               0             -200               0
1.66887               -0.3990586       -24.23503        -44.73237       -53.72893             -200               0             -200               0
1.6755                -0.4109671       -24.48104        -44.40667       -57.23096             -200               0             -200               0
1.68212               -0.4232817       -24.73125        -44.08663       -60.77899             -200               0             -200               0
1.68874               -0.4360315       -24.98575        -43.77251       -64.36812             -200               0             -200               0
1.69536               -0.4492526       -25.24463        -43.46448        -67.9936             -200               0             -200               0
1.70199               -0.4629792       -25.50796        -43.16264       -71.65082             -200               0             -200               0
1.70861               -0.4772511       -25.77579        -42.86704       -75.33534             -200               0             -200               0
1.71523               -0.4921043       -26.04816        -42.57762       -79.04296             -200               0             -200               0
1.72185               -0.5075779       -26.32508        -42.29432       -82.76966             -200               0             -200               0
1.72848               -0.5237091       -26.60654          -42.017       -86.51167             -200               0             -200               0
1.7351                -0.5405348       -26.89251        -41.74547       -90.26543             -200               0             -200               0
1.74172               -0.5580921       -27.18296        -41.47953       -94.02766             -200               0             -200               0
1.74834               -0.5764141       -27.47782        -41.21891       -97.79531             -200               0             -200               0
1.75497               -0.5955367       -27.77704        -40.96332       -101.5656             -200               0             -200               0
1.76159               -0.6154893       -28.08052        -40.71245        -105.336             -200               0             -200               0
1.76821               -0.6363008       -28.38817        -40.46596       -109.1042             -200               0             -200               0
1.77483               -0.6579969       -28.69991        -40.22347       -112.8684             -200               0             -200               0
1.78146               -0.6806034       -29.01562        -39.98459       -116.6267             -200               0             -200               0
1.78808               -0.7041393       -29.33522        -39.74894       -120.3779             -200               0             -200               0
1.7947                -0.7286236        -29.6586        -39.51609       -124.1208             -200               0             -200               0
1.80132               -0.7540715       -29.98569        -39.28561       -127.8546             -200               0             -200               0
1.80795               -0.7804981       -30.31642        -39.05708       -131.5788             -200               0             -200               0
1.81457               -0.8079133       -30.65072        -38.83008       -135.2933             -200               0             -200               0
1.82119               -0.8363281       -30.98856        -38.60418       -138.9983             -200               0             -200               0
1.82781               -0.8657507       -31.32992        -38.37896       -142.6941             -200               0             -200               0
1.83444               -0.8961885       -31.67481        -38.15402       -146.3814             -200               0             -200               0
1.84106               -0.9276498       -32.02327        -37.92898       -150.0614             -200               0             -200               0
1.84768               -0.9601427       -32.37534        -37.70348       -153.7354             -200               0             -200               0
1.8543                -0.9936767       -32.73113        -37.47718       -157.4048             -200               0             -200               0
1.86093                -1.028265       -33.09075         -37.2498       -161.0716             -200               0             -200               0
1.86755                -1.063919       -33.45434        -37.02105       -164.7378             -200               0             -200               0
1.87417                -1.100658        -33.8221        -36.79071       -168.4055             -200               0             -200               0
1.88079                -1.138505       -34.19423        -36.55861       -172.0771             -200               0             -200               0
1.88742                -1.177485       -34.57094        -36.32461       -175.7551             -200               0             -200               0
1.89404                -1.217631       -34.95249        -36.08861        -179.442             -200               0             -200               0
1.90066                -1.258983       -35.33916        -35.85056        176.8596             -200               0             -200               0
1.90728                -1.301587       -35.73123        -35.61046        173.1471             -200               0             -200               0
1.91391                -1.345496         -36.129        -35.36837         169.418             -200               0             -200               0
1.92053                -1.390771       -36.53276        -35.12436        165.6699             -200               0             -200               0
1.92715                -1.437483       -36.94281        -34.87857        161.9003             -200               0             -200               0
1.93377                 -1.48571       -37.35948        -34.63115        158.1071             -200               0             -200               0
1.9404                 -1.535541       -37.78301        -34.38231        154.2881             -200               0             -200               0
1.94702                -1.587071        -38.2137        -34.13228        150.4415             -200               0             -200               0
1.95364                -1.640407       -38.65179         -33.8813        146.5656             -200               0             -200               0
1.96026                -1.695662       -39.09749        -33.62965        142.6589             -200               0             -200               0
1.96689                -1.752961       -39.55099        -33.37762        138.7201             -200               0             -200               0
1.97351                -1.812436       -40.01243         -33.1255        134.7481             -200               0             -200               0
1.98013                -1.874226       -40.48192        -32.87362        130.7422             -200               0             -200               0
1.98675                -1.938479       -40.95949        -32.62228        126.7016             -200               0             -200               0
1.99338                -2.005352       -41.44516         -32.3718        122.6259             -200               0             -200               0
2                      -2.075006       -41.93886        -32.12248        118.5148             -200               0             -200               0
2.00662                -2.147609       -42.44046        -31.87464        114.3683             -200               0             -200               0
2.01325                -2.223338       -42.94979        -31.62856        110.1865             -200               0             -200               0
2.01987                 -2.30237       -43.46659        -31.38455        105.9696             -200               0             -200               0
2.02649                -2.384894       -43.99053        -31.14288        101.7179             -200               0             -200               0
2.03311                -2.471096       -44.52125        -30.90381        97.43195             -200               0             -200               0
2.03974                -2.561171       -45.05827         -30.6676        93.11239             -200               0             -200               0
2.04636                -2.655318       -45.60106        -30.43448        88.75988             -200               0             -200               0
2.05298                -2.753737       -46.14902        -30.20468        84.37522             -200               0             -200               0
2.0596                 -2.856631       -46.70146        -29.97842        79.95924             -200               0             -200               0
2.06623                 -2.96421       -47.25764        -29.75587        75.51286             -200               0             -200               0
2.07285                -3.076684       -47.81672        -29.53724        71.03703             -200               0             -200               0
2.07947                -3.194268        -48.3778        -29.32269        66.53274             -200               0             -200               0
2.08609                -3.317177       -48.93992        -29.11237        62.00102             -200               0             -200               0
2.09272                -3.445636       -49.50198        -28.90642         57.4429             -200               0             -200               0
2.09934                 -3.57987       -50.06287        -28.70498        52.85944             -200               0             -200               0
2.10596                -3.720108       -50.62134        -28.50817        48.25171             -200               0             -200               0
2.11258                -3.866588       -51.17608        -28.31609        43.62079             -200               0             -200               0
2.11921                -4.019551       -51.72568        -28.12884        38.96774             -200               0             -200               0
2.12583                -4.179246       -52.26863        -27.94652        34.29363             -200               0             -200               0
2.13245                -4.345932       -52.80331        -27.76919        29.59952             -200               0             -200               0
2.13907                -4.519873       -53.32798        -27.59694        24.88646             -200               0             -200               0
2.1457                 -4.701348       -53.84077        -27.42983        20.15548             -200               0             -200               0
2.15232                -4.890647       -54.33966         -27.2679        15.40762             -200               0             -200               0
2.15894                -5.088072       -54.82248        -27.11123        10.64388             -200               0             -200               0
2.16556                -5.293938       -55.28685        -26.95984        5.865247             -200               0             -200               0
2.17219                 -5.50858       -55.73019        -26.81378         1.07271             -200               0             -200               0
2.17881                -5.732352       -56.14971        -26.67307       -3.732772             -200               0             -200               0
2.18543                -5.965623       -56.54228        -26.53776       -8.550255             -200               0             -200               0
2.19205                -6.208788       -56.90451        -26.40786       -13.37881             -200               0             -200               0
2.19868                -6.462261       -57.23258         -26.2834       -18.21753             -200               0             -200               0
2.2053                 -6.726483       -57.52228        -26.16439       -23.06551             -200               0             -200               0
2.21192                -7.001915       -57.76888        -26.05085       -27.92186             -200               0             -200               0
2.21854                -7.289048       -57.96704        -25.94279       -32.78574             -200               0             -200               0
2.22517                 -7.58839       -58.11074        -25.84021       -37.65628             -200               0             -200               0
2.23179                -7.900475       -58.19314        -25.74312       -42.53264             -200               0             -200               0
2.23841                -8.225848       -58.20644        -25.65154         -47.414             -200               0             -200               0
2.24503                -8.565063       -58.14169        -25.56545       -52.29953             -200               0             -200               0
2.25166                 -8.91867        -57.9886        -25.48485       -57.18843             -200               0             -200               0
2.25828                -9.287194       -57.73531        -25.40976       -62.07992             -200               0             -200               0
2.2649                 -9.671109       -57.36809        -25.34015       -66.97319             -200               0             -200               0
2.27152                 -10.0708       -56.87103        -25.27604       -71.86747             -200               0             -200               0
2.27815                -10.48651       -56.22565         -25.2174       -76.76198             -200               0             -200               0
2.28477                -10.91825       -55.41053        -25.16424       -81.65597             -200               0             -200               0
2.29139                -11.36569       -54.40087        -25.11654       -86.54865             -200               0             -200               0
2.29801                -11.82802       -53.16811        -25.07429       -91.43928             -200               0             -200               0