! TOUCHSTONE file generated by CST MICROWAVE STUDIO
! Date and time: Sat Mar  8 13:54:45 2025
! Project name: non_fractured.cst
! Parameters = {B=2.5; D=160; F=15; Feed=2.85625; L=100; M=10; R=0.384908; S=1; Theta=0; length=57.125; wave=114.25}
! Header version: 2024
! Port assignment regex: !\s*Touchstone port\s*([0-9]+)\s*=\s*(CST MWS port|CST DES external port|CST DES block port)\s*(.+)\s* \(\"(.*)\"\)(\s*mode\s*([0-9]+))?.*
! Touchstone port assignment:
! Touchstone port 1 = CST MWS port 1 ("")
! Touchstone port 2 = CST MWS port 2 ("")
# GHz S DB R 50
1                    -0.01597907       -9.753198        -69.06136       -120.4868             -200               0             -200               0
1.0066                -0.0168874       -9.844219        -68.57167       -125.2566             -200               0             -200               0
1.0132               -0.01789957       -9.935446        -68.12977       -130.0467             -200               0             -200               0
1.0198               -0.01900572       -10.02679        -67.73241       -134.8409             -200               0             -200               0
1.0264               -0.02019353       -10.11819        -67.37687       -139.6251             -200               0             -200               0
1.033                -0.02144715       -10.20959         -67.0609       -144.3863             -200               0             -200               0
1.0396               -0.02275244       -10.30094        -66.78265       -149.1125             -200               0             -200               0
1.0462                 -0.024092       -10.39224        -66.54054        -153.792             -200               0             -200               0
1.05281              -0.02544682       -10.48348        -66.33326       -158.4131             -200               0             -200               0
1.05941              -0.02679888        -10.5747         -66.1597       -162.9636             -200               0             -200               0
1.06601              -0.02813327       -10.66593        -66.01892       -167.4309             -200               0             -200               0
1.07261              -0.02943269       -10.75724        -65.91006       -171.8012             -200               0             -200               0
1.07921               -0.0306831       -10.84871        -65.83235       -176.0596             -200               0             -200               0
1.08581              -0.03187187       -10.94044          -65.785        179.8105             -200               0             -200               0
1.09241              -0.03298963       -11.03254        -65.76714        175.8275             -200               0             -200               0
1.09901              -0.03402762       -11.12513         -65.7778        172.0121             -200               0             -200               0
1.10561              -0.03498187       -11.21835        -65.81568        168.3874             -200               0             -200               0
1.11221               -0.0358536       -11.31234        -65.87915        164.9793             -200               0             -200               0
1.11881              -0.03664215       -11.40723        -65.96594        161.8166             -200               0             -200               0
1.12541              -0.03735313       -11.50315        -66.07301        158.9306             -200               0             -200               0
1.13201              -0.03799669       -11.60024        -66.19625        156.3547             -200               0             -200               0
1.13861              -0.03858384       -11.69862        -66.33014        154.1234             -200               0             -200               0
1.14521              -0.03912677       -11.79839        -66.46746        152.2693             -200               0             -200               0
1.15182              -0.03964353       -11.89964        -66.59897        150.8203             -200               0             -200               0
1.15842              -0.04015299       -12.00246         -66.7133         149.794             -200               0             -200               0
1.16502              -0.04067332       -12.10689        -66.79709        149.1913             -200               0             -200               0
1.17162              -0.04122608       -12.21297        -66.83571        148.9892             -200               0             -200               0
1.17822              -0.04183191       -12.32071        -66.81448         149.135             -200               0             -200               0
1.18482               -0.0425116       -12.43011        -66.72053        149.5442             -200               0             -200               0
1.19142              -0.04328574       -12.54112        -66.54488        150.1048             -200               0             -200               0
1.19802              -0.04417288       -12.65371        -66.28407        150.6883             -200               0             -200               0
1.20462              -0.04518975        -12.7678        -65.94085        151.1662             -200               0             -200               0
1.21122              -0.04635103        -12.8833        -65.52356        151.4253             -200               0             -200               0
1.21782               -0.0476699       -13.00012        -65.04447        151.3799             -200               0             -200               0
1.22442              -0.04915363       -13.11815        -64.51778        150.9759             -200               0             -200               0
1.23102              -0.05081048       -13.23726         -63.9577        150.1895             -200               0             -200               0
1.23762              -0.05264096       -13.35735        -63.37717        149.0208             -200               0             -200               0
1.24422              -0.05464534       -13.47828        -62.78717        147.4871             -200               0             -200               0
1.25083              -0.05681928       -13.59994         -62.1965        145.6162             -200               0             -200               0
1.25743              -0.05915485       -13.72222        -61.61191        143.4413             -200               0             -200               0
1.26403              -0.06164168       -13.84503         -61.0384        140.9968             -200               0             -200               0
1.27063              -0.06426649       -13.96828        -60.47948        138.3169             -200               0             -200               0
1.27723              -0.06701363        -14.0919        -59.93758        135.4333             -200               0             -200               0
1.28383              -0.06986537       -14.21586        -59.41421        132.3755             -200               0             -200               0
1.29043              -0.07280221       -14.34012        -58.91025        129.1697             -200               0             -200               0
1.29703              -0.07580475        -14.4647         -58.4261        125.8396             -200               0             -200               0
1.30363              -0.07885345        -14.5896         -57.9618        122.4063             -200               0             -200               0
1.31023              -0.08192795       -14.71489        -57.51714        118.8883             -200               0             -200               0
1.31683              -0.08500987       -14.84064        -57.09172        115.3024             -200               0             -200               0
1.32343              -0.08808158       -14.96693        -56.68501        111.6632             -200               0             -200               0
1.33003              -0.09112859        -15.0939        -56.29636        107.9841             -200               0             -200               0
1.33663              -0.09413866       -15.22166        -55.92509        104.2768             -200               0             -200               0
1.34323              -0.09710251       -15.35038        -55.57044        100.5521             -200               0             -200               0
1.34984               -0.1000131       -15.48022         -55.2316        96.81964             -200               0             -200               0
1.35644               -0.1028699       -15.61134        -54.90774        93.08816             -200               0             -200               0
1.36304               -0.1056726       -15.74391        -54.59798        89.36565             -200               0             -200               0
1.36964               -0.1084278       -15.87812        -54.30142        85.65935             -200               0             -200               0
1.37624               -0.1111449       -16.01413        -54.01714        81.97585             -200               0             -200               0
1.38284               -0.1138361       -16.15211        -53.74415        78.32111             -200               0             -200               0
1.38944               -0.1165186       -16.29219        -53.48146        74.70047             -200               0             -200               0
1.39604               -0.1192103       -16.43453        -53.22802        71.11869             -200               0             -200               0
1.40264               -0.1219353       -16.57922        -52.98277         67.5799             -200               0             -200               0
1.40924               -0.1247162       -16.72637         -52.7446        64.08758             -200               0             -200               0
1.41584               -0.1275797       -16.87604        -52.51236        60.64454             -200               0             -200               0
1.42244                -0.130551       -17.02828        -52.28488        57.25286             -200               0             -200               0
1.42904               -0.1336582        -17.1831        -52.06098        53.91389             -200               0             -200               0
1.43564               -0.1369275       -17.34051        -51.83945        50.62811             -200               0             -200               0
1.44224               -0.1403834       -17.50047        -51.61908        47.39519             -200               0             -200               0
1.44884               -0.1440506       -17.66293        -51.39869        44.21388             -200               0             -200               0
1.45545                 -0.14795       -17.82781        -51.17711        41.08202             -200               0             -200               0
1.46205               -0.1521001       -17.99503        -50.95324        37.99652             -200               0             -200               0
1.46865               -0.1565168       -18.16448        -50.72603        34.95343             -200               0             -200               0
1.47525               -0.1612116       -18.33603        -50.49453         31.9479             -200               0             -200               0
1.48185               -0.1661929       -18.50958         -50.2579        28.97436             -200               0             -200               0
1.48845                -0.171465       -18.68499        -50.01542        26.02654             -200               0             -200               0
1.49505               -0.1770276       -18.86215        -49.76654        23.09766             -200               0             -200               0
1.50165               -0.1828769       -19.04093        -49.51085        20.18054             -200               0             -200               0
1.50825               -0.1890055       -19.22124        -49.24809        17.26785             -200               0             -200               0
1.51485               -0.1954021       -19.40299         -48.9782        14.35217             -200               0             -200               0
1.52145               -0.2020539       -19.58611        -48.70124        11.42631             -200               0             -200               0
1.52805               -0.2089433       -19.77056        -48.41747        8.483367             -200               0             -200               0
1.53465               -0.2160531       -19.95632        -48.12726         5.51692             -200               0             -200               0
1.54125               -0.2233622        -20.1434         -47.8311        2.521164             -200               0             -200               0
1.54785               -0.2308521       -20.33185        -47.52959      -0.5090038             -200               0             -200               0
1.55446               -0.2385019       -20.52174        -47.22342       -3.577919             -200               0             -200               0
1.56106                -0.246293       -20.71316        -46.91332       -6.689103             -200               0             -200               0
1.56766               -0.2542094       -20.90627        -46.60005       -9.845268             -200               0             -200               0
1.57426               -0.2622354       -21.10121        -46.28442       -13.04833             -200               0             -200               0
1.58086               -0.2703592       -21.29817        -45.96719       -16.29943             -200               0             -200               0
1.58746               -0.2785751       -21.49736        -45.64914       -19.59902             -200               0             -200               0
1.59406               -0.2868786       -21.69901          -45.331       -22.94691             -200               0             -200               0
1.60066               -0.2952715       -21.90337        -45.01346       -26.34233             -200               0             -200               0
1.60726               -0.3037606       -22.11068        -44.69718       -29.78403             -200               0             -200               0
1.61386               -0.3123581        -22.3212        -44.38273       -33.27031             -200               0             -200               0
1.62046               -0.3210808       -22.53518        -44.07064       -36.79915             -200               0             -200               0
1.62706               -0.3299537       -22.75287        -43.76139       -40.36825             -200               0             -200               0
1.63366               -0.3390023        -22.9745        -43.45539       -43.97505             -200               0             -200               0
1.64026               -0.3482594       -23.20029        -43.15299       -47.61687             -200               0             -200               0
1.64686               -0.3577637       -23.43044        -42.85447        -51.2909             -200               0             -200               0
1.65347               -0.3675552       -23.66511        -42.56008       -54.99423             -200               0             -200               0
1.66007               -0.3776769       -23.90444           -42.27       -58.72398             -200               0             -200               0
1.66667               -0.3881758       -24.14855        -41.98434       -62.47721             -200               0             -200               0
1.67327                -0.399099        -24.3975         -41.7032       -66.25104             -200               0             -200               0
1.67987                -0.410495       -24.65133        -41.42662       -70.04264             -200               0             -200               0
1.68647               -0.4224117       -24.91005        -41.15458       -73.84925             -200               0             -200               0
1.69307               -0.4348975       -25.17363        -40.88703       -77.66823             -200               0             -200               0
1.69967               -0.4479961       -25.44201        -40.62389       -81.49703             -200               0             -200               0
1.70627               -0.4617507       -25.71509        -40.36504       -85.33322             -200               0             -200               0
1.71287               -0.4762002       -25.99278        -40.11033       -89.17454             -200               0             -200               0
1.71947               -0.4913811       -26.27492        -39.85958       -93.01887             -200               0             -200               0
1.72607               -0.5073232       -26.56136        -39.61256       -96.86426             -200               0             -200               0
1.73267               -0.5240525       -26.85195        -39.36906       -100.7089             -200               0             -200               0
1.73927               -0.5415903       -27.14651        -39.12881       -104.5513             -200               0             -200               0
1.74587               -0.5599529       -27.44489        -38.89153         -108.39             -200               0             -200               0
1.75248               -0.5791504       -27.74692        -38.65694       -112.2239             -200               0             -200               0
1.75908               -0.5991893       -28.05248        -38.42471        -116.052             -200               0             -200               0
1.76568               -0.6200716       -28.36143        -38.19454       -119.8736             -200               0             -200               0
1.77228               -0.6417927       -28.67368        -37.96609       -123.6881             -200               0             -200               0
1.77888               -0.6643508       -28.98918        -37.73903       -127.4954             -200               0             -200               0
1.78548               -0.6877333        -29.3079        -37.51302       -131.2954             -200               0             -200               0
1.79208               -0.7119344       -29.62986        -37.28774       -135.0884             -200               0             -200               0
1.79868                -0.736943       -29.95511        -37.06286       -138.8747             -200               0             -200               0
1.80528               -0.7627487       -30.28378        -36.83807       -142.6552             -200               0             -200               0
1.81188               -0.7893449       -30.61601        -36.61305       -146.4308             -200               0             -200               0
1.81848               -0.8167265       -30.95201        -36.38754       -150.2026             -200               0             -200               0
1.82508               -0.8448943       -31.29202        -36.16127       -153.9719             -200               0             -200               0
1.83168               -0.8738532       -31.63633          -35.934       -157.7404             -200               0             -200               0
1.83828               -0.9036154       -31.98527        -35.70552       -161.5097             -200               0             -200               0
1.84488               -0.9341999       -32.33921        -35.47565       -165.2817             -200               0             -200               0
1.85149               -0.9656364       -32.69852        -35.24426       -169.0584             -200               0             -200               0
1.85809               -0.9979613       -33.06362        -35.01122       -172.8419             -200               0             -200               0
1.86469                -1.031223       -33.43494        -34.77648       -176.6343             -200               0             -200               0
1.87129                -1.065481       -33.81289        -34.53998        179.5622             -200               0             -200               0
1.87789                -1.100804       -34.19791        -34.30174        175.7455             -200               0             -200               0
1.88449                -1.137275       -34.59039        -34.06178        171.9133             -200               0             -200               0
1.89109                -1.174984       -34.99073        -33.82018        168.0635             -200               0             -200               0
1.89769                -1.214035       -35.39927        -33.57705        164.1942             -200               0             -200               0
1.90429                -1.254541       -35.81634        -33.33251        160.3033             -200               0             -200               0
1.91089                -1.296626       -36.24218        -33.08674        156.3891             -200               0             -200               0
1.91749                -1.340422       -36.67701        -32.83991        152.4498             -200               0             -200               0
1.92409                -1.386069       -37.12096        -32.59225         148.484             -200               0             -200               0
1.93069                -1.433716       -37.57412        -32.34398        144.4903             -200               0             -200               0
1.93729                -1.483515       -38.03647        -32.09535        140.4674             -200               0             -200               0
1.94389                -1.535627       -38.50792        -31.84661        136.4144             -200               0             -200               0
1.9505                 -1.590213       -38.98833        -31.59803        132.3304             -200               0             -200               0
1.9571                 -1.647437       -39.47743        -31.34988        128.2147             -200               0             -200               0
1.9637                 -1.707464        -39.9749        -31.10244        124.0668             -200               0             -200               0
1.9703                 -1.770462       -40.48033        -30.85598        119.8864             -200               0             -200               0
1.9769                 -1.836593       -40.99322        -30.61076        115.6732             -200               0             -200               0
1.9835                  -1.90602         -41.513        -30.36706        111.4273             -200               0             -200               0
1.9901                   -1.9789       -42.03903        -30.12514        107.1487             -200               0             -200               0
1.9967                  -2.05539       -42.57059        -29.88526        102.8376             -200               0             -200               0
2.0033                 -2.135637        -43.1069        -29.64764        98.49434             -200               0             -200               0
2.0099                 -2.219786       -43.64711        -29.41254        94.11936             -200               0             -200               0
2.0165                 -2.307972       -44.19033        -29.18017        89.71316             -200               0             -200               0
2.0231                 -2.400329       -44.73563        -28.95074        85.27635             -200               0             -200               0
2.0297                 -2.496981       -45.28202        -28.72446        80.80959             -200               0             -200               0
2.0363                 -2.598045       -45.82848        -28.50151        76.31362             -200               0             -200               0
2.0429                 -2.703635       -46.37397        -28.28208        71.78921             -200               0             -200               0
2.0495                 -2.813854       -46.91744        -28.06632         67.2372             -200               0             -200               0
2.05611                -2.928806       -47.45781        -27.85439        62.65843             -200               0             -200               0
2.06271                -3.048585       -47.99397        -27.64643        58.05379             -200               0             -200               0
2.06931                -3.173284       -48.52486        -27.44258        53.42421             -200               0             -200               0
2.07591                -3.302994       -49.04938        -27.24296        48.77059             -200               0             -200               0
2.08251                -3.437804       -49.56645        -27.04768        44.09387             -200               0             -200               0
2.08911                -3.577802       -50.07498        -26.85684          39.395             -200               0             -200               0
2.09571                -3.723082       -50.57389        -26.67054        34.67492             -200               0             -200               0
2.10231                -3.873738       -51.06213        -26.48886        29.93458             -200               0             -200               0
2.10891                -4.029873       -51.53861        -26.31188        25.17492             -200               0             -200               0
2.11551                -4.191596       -52.00227        -26.13967        20.39687             -200               0             -200               0
2.12211                -4.359029       -52.45203        -25.97229        15.60135             -200               0             -200               0
2.12871                -4.532304       -52.88677        -25.80981         10.7893             -200               0             -200               0
2.13531                -4.711569       -53.30536        -25.65227        5.961622             -200               0             -200               0
2.14191                -4.896992       -53.70661        -25.49972        1.119204             -200               0             -200               0
2.14851                -5.088761       -54.08927        -25.35219       -3.737064             -200               0             -200               0
2.15512                -5.287084       -54.45197        -25.20974       -8.606313             -200               0             -200               0
2.16172                -5.492198       -54.79324        -25.07238       -13.48768             -200               0             -200               0
2.16832                -5.704366       -55.11146        -24.94015       -18.38033             -200               0             -200               0
2.17492                -5.923883       -55.40479        -24.81306       -23.28341             -200               0             -200               0
2.18152                -6.151073       -55.67116        -24.69115       -28.19612             -200               0             -200               0
2.18812                -6.386298       -55.90823        -24.57442       -33.11764             -200               0             -200               0
2.19472                -6.629952        -56.1133         -24.4629       -38.04718             -200               0             -200               0
2.20132                -6.882467       -56.28322         -24.3566       -42.98396             -200               0             -200               0
2.20792                -7.144307        -56.4144        -24.25551       -47.92719             -200               0             -200               0
2.21452                -7.415977       -56.50262        -24.15966       -52.87613             -200               0             -200               0
2.22112                -7.698011       -56.54298        -24.06905       -57.83002             -200               0             -200               0
2.22772                -7.990973       -56.52977        -23.98368       -62.78811             -200               0             -200               0
2.23432                 -8.29545       -56.45632        -23.90355       -67.74967             -200               0             -200               0
2.24092                 -8.61204       -56.31486        -23.82866       -72.71397             -200               0             -200               0
2.24752                -8.941347       -56.09629        -23.75902       -77.68029             -200               0             -200               0
2.25413                -9.283951       -55.79001        -23.69461       -82.64792             -200               0             -200               0
2.26073                -9.640388       -55.38362        -23.63544       -87.61614             -200               0             -200               0
2.26733                -10.01111        -54.8627         -23.5815       -92.58425             -200               0             -200               0
2.27393                -10.39644       -54.21043        -23.53278       -97.55155             -200               0             -200               0
2.28053                -10.79647       -53.40729        -23.48927       -102.5173             -200               0             -200               0
2.28713                -11.21101       -52.43071        -23.45096       -107.4809             -200               0             -200               0
2.29373                -11.63943       -51.25475        -23.41785       -112.4416             -200               0             -200               0