! TOUCHSTONE file generated by CST MICROWAVE STUDIO
! Date and time: Sat Mar  8 13:54:28 2025
! Project name: non_fractured.cst
! Parameters = {B=2.5; D=160; F=25; Feed=2.85625; L=100; M=5; R=0.384908; S=1.5; Theta=90; length=57.125; wave=114.25}
! Header version: 2024
! Port assignment regex: !\s*Touchstone port\s*([0-9]+)\s*=\s*(CST MWS port|CST DES external port|CST DES block port)\s*(.+)\s* \(\"(.*)\"\)(\s*mode\s*([0-9]+))?.*
! Touchstone port assignment:
! Touchstone port 1 = CST MWS port 1 ("")
! Touchstone port 2 = CST MWS port 2 ("")
# GHz S DB R 50
1                    -0.01821022       -9.743133        -66.97305       -156.2676             -200               0             -200               0
1.0066               -0.01900834       -9.831819        -66.85065       -160.0472             -200               0             -200               0
1.0132               -0.01985937       -9.920882        -66.74362       -163.7434             -200               0             -200               0
1.0198               -0.02075805        -10.0103        -66.65094       -167.3476             -200               0             -200               0
1.0264                -0.0216989       -10.10004         -66.5715        -170.851             -200               0             -200               0
1.033                -0.02267429        -10.1901        -66.50402       -174.2451             -200               0             -200               0
1.0396               -0.02367666       -10.28047        -66.44706       -177.5211             -200               0             -200               0
1.0462               -0.02469996       -10.37117        -66.39897        179.3293             -200               0             -200               0
1.05281              -0.02573562       -10.46219        -66.35786         176.314             -200               0             -200               0
1.05941              -0.02677693       -10.55358         -66.3216        173.4402             -200               0             -200               0
1.06601              -0.02781751       -10.64535         -66.2878        170.7137             -200               0             -200               0
1.07261              -0.02885007       -10.73756        -66.25379         168.139             -200               0             -200               0
1.07921              -0.02987178       -10.83024        -66.21667        165.7182             -200               0             -200               0
1.08581              -0.03087553       -10.92346        -66.17329        163.4509             -200               0             -200               0
1.09241              -0.03186012       -11.01727         -66.1204        161.3332             -200               0             -200               0
1.09901              -0.03282375       -11.11174        -66.05466        159.3578             -200               0             -200               0
1.10561              -0.03376709       -11.20694        -65.97282         157.513             -200               0             -200               0
1.11221              -0.03468978       -11.30292        -65.87187        155.7833             -200               0             -200               0
1.11881              -0.03559604       -11.39976        -65.74916        154.1489             -200               0             -200               0
1.12541              -0.03648969       -11.49752        -65.60259        152.5866             -200               0             -200               0
1.13201              -0.03737715       -11.59625        -65.43077        151.0707             -200               0             -200               0
1.13861              -0.03826242       -11.69602        -65.23305         149.574             -200               0             -200               0
1.14521              -0.03915654       -11.79686        -65.00963        148.0692             -200               0             -200               0
1.15182              -0.04006758       -11.89881        -64.76147          146.53             -200               0             -200               0
1.15842              -0.04100268       -12.00192        -64.49025        144.9328             -200               0             -200               0
1.16502              -0.04197375       -12.10618        -64.19824         143.257             -200               0             -200               0
1.17162              -0.04299017       -12.21162         -63.8881        141.4861             -200               0             -200               0
1.17822              -0.04406165       -12.31824        -63.56278        139.6078             -200               0             -200               0
1.18482              -0.04519731       -12.42601         -63.2253        137.6139             -200               0             -200               0
1.19142              -0.04640595       -12.53494        -62.87866        135.4999             -200               0             -200               0
1.19802              -0.04769668       -12.64499         -62.5257         133.265             -200               0             -200               0
1.20462              -0.04907532       -12.75612        -62.16906        130.9111             -200               0             -200               0
1.21122               -0.0505472        -12.8683        -61.81112        128.4421             -200               0             -200               0
1.21782              -0.05211692       -12.98148        -61.45396        125.8642             -200               0             -200               0
1.22442              -0.05378765       -13.09562        -61.09938        123.1843             -200               0             -200               0
1.23102              -0.05555965       -13.21066         -60.7489        120.4106             -200               0             -200               0
1.23762              -0.05743381       -13.32655        -60.40375        117.5515             -200               0             -200               0
1.24422              -0.05940762       -13.44326        -60.06495        114.6158             -200               0             -200               0
1.25083              -0.06147733       -13.56073        -59.73328        111.6123             -200               0             -200               0
1.25743              -0.06363849       -13.67894        -59.40932        108.5497             -200               0             -200               0
1.26403               -0.0658831       -13.79785        -59.09348        105.4365             -200               0             -200               0
1.27063              -0.06820564       -13.91744        -58.78601        102.2808             -200               0             -200               0
1.27723               -0.0705974       -14.03771        -58.48705        99.09052             -200               0             -200               0
1.28383              -0.07304897       -14.15865        -58.19659        95.87303             -200               0             -200               0
1.29043              -0.07555221       -14.28028        -57.91452        92.63541             -200               0             -200               0
1.29703              -0.07809669       -14.40262        -57.64063        89.38427             -200               0             -200               0
1.30363              -0.08067392       -14.52571        -57.37465        86.12579             -200               0             -200               0
1.31023              -0.08327547        -14.6496         -57.1162        82.86574             -200               0             -200               0
1.31683               -0.0858946       -14.77434        -56.86486        79.60941             -200               0             -200               0
1.32343              -0.08852129           -14.9        -56.62011        76.36163             -200               0             -200               0
1.33003              -0.09115371       -15.02667         -56.3814        73.12679             -200               0             -200               0
1.33663              -0.09378509       -15.15443        -56.14813        69.90874             -200               0             -200               0
1.34323              -0.09641561       -15.28338        -55.91963        66.71083             -200               0             -200               0
1.34984              -0.09904343        -15.4136         -55.6952         63.5359             -200               0             -200               0
1.35644               -0.1016689       -15.54521        -55.47411        60.38617             -200               0             -200               0
1.36304                -0.104298       -15.67829        -55.25561        57.26334             -200               0             -200               0
1.36964               -0.1069338       -15.81295         -55.0389        54.16844             -200               0             -200               0
1.37624               -0.1095824       -15.94929        -54.82321        51.10191             -200               0             -200               0
1.38284               -0.1122543        -16.0874        -54.60775        48.06349             -200               0             -200               0
1.38944               -0.1149604       -16.22735        -54.39175        45.05233             -200               0             -200               0
1.39604               -0.1177092       -16.36923        -54.17445         42.0669             -200               0             -200               0
1.40264               -0.1205156       -16.51309        -53.95516        39.10502             -200               0             -200               0
1.40924               -0.1233928         -16.659        -53.73322        36.16395             -200               0             -200               0
1.41584               -0.1263543         -16.807        -53.50804        33.24036             -200               0             -200               0
1.42244               -0.1294139       -16.95713        -53.27911        30.33046             -200               0             -200               0
1.42904               -0.1325863        -17.1094          -53.046        27.43001             -200               0             -200               0
1.43564               -0.1358843       -17.26382        -52.80838        24.53448             -200               0             -200               0
1.44224               -0.1393235        -17.4204        -52.56605        21.63909             -200               0             -200               0
1.44884               -0.1429126       -17.57913        -52.31886        18.73895             -200               0             -200               0
1.45545               -0.1466663       -17.73998        -52.06683        15.82918             -200               0             -200               0
1.46205               -0.1505919       -17.90295        -51.81003        12.90495             -200               0             -200               0
1.46865                -0.154698         -18.068        -51.54866        9.961682             -200               0             -200               0
1.47525               -0.1589923        -18.2351          -51.283        6.995067             -200               0             -200               0
1.48185               -0.1634786       -18.40421        -51.01343        4.001171             -200               0             -200               0
1.48845               -0.1681617       -18.57533        -50.74038       0.9765002             -200               0             -200               0
1.49505               -0.1730409       -18.74841        -50.46434       -2.081954             -200               0             -200               0
1.50165               -0.1781159       -18.92344        -50.18585       -5.176685             -200               0             -200               0
1.50825               -0.1833891       -19.10041        -49.90548       -8.309649             -200               0             -200               0
1.51485               -0.1888543       -19.27932        -49.62381       -11.48227             -200               0             -200               0
1.52145               -0.1945101       -19.46017        -49.34145       -14.69545             -200               0             -200               0
1.52805               -0.2003517         -19.643        -49.05899       -17.94959             -200               0             -200               0
1.53465               -0.2063746       -19.82784        -48.77701       -21.24461             -200               0             -200               0
1.54125                -0.212574       -20.01473        -48.49606       -24.58001             -200               0             -200               0
1.54785               -0.2189474       -20.20375        -48.21668       -27.95488             -200               0             -200               0
1.55446               -0.2254904       -20.39497        -47.93937       -31.36797             -200               0             -200               0
1.56106               -0.2321994       -20.58848         -47.6646        -34.8177             -200               0             -200               0
1.56766               -0.2390764        -20.7844        -47.39279       -38.30223             -200               0             -200               0
1.57426               -0.2461206       -20.98283        -47.12433        -41.8195             -200               0             -200               0
1.58086               -0.2533357       -21.18391        -46.85957       -45.36723             -200               0             -200               0
1.58746               -0.2607266       -21.38776         -46.5988         -48.943             -200               0             -200               0
1.59406               -0.2683023       -21.59454         -46.3423       -52.54425             -200               0             -200               0
1.60066               -0.2760703       -21.80439        -46.09026       -56.16831             -200               0             -200               0
1.60726                -0.284046       -22.01744        -45.84288       -59.81245             -200               0             -200               0
1.61386               -0.2922453       -22.23386        -45.60029       -63.47388             -200               0             -200               0
1.62046                -0.300686       -22.45377        -45.36258       -67.14977             -200               0             -200               0
1.62706               -0.3093894       -22.67731        -45.12982       -70.83728             -200               0             -200               0
1.63366               -0.3183783       -22.90461        -44.90203       -74.53356             -200               0             -200               0
1.64026               -0.3276789       -23.13578        -44.67918       -78.23579             -200               0             -200               0
1.64686               -0.3373189       -23.37093        -44.46122       -81.94117             -200               0             -200               0
1.65347               -0.3473289       -23.61014        -44.24807       -85.64694             -200               0             -200               0
1.66007               -0.3577368       -23.85348        -44.03959        -89.3504             -200               0             -200               0
1.66667               -0.3685759       -24.10102        -43.83563       -93.04894             -200               0             -200               0
1.67327               -0.3798767       -24.35278        -43.63599       -96.74001             -200               0             -200               0
1.67987                -0.391673        -24.6088        -43.44043       -100.4212             -200               0             -200               0
1.68647               -0.4039945       -24.86909         -43.2487       -104.0901             -200               0             -200               0
1.69307               -0.4168741       -25.13363         -43.0605       -107.7447             -200               0             -200               0
1.69967               -0.4303397        -25.4024        -42.87549       -111.3828             -200               0             -200               0
1.70627               -0.4444226       -25.67537        -42.69331       -115.0027             -200               0             -200               0
1.71287               -0.4591472       -25.95251        -42.51357       -118.6027             -200               0             -200               0
1.71947               -0.4745411       -26.23375        -42.33584       -122.1814             -200               0             -200               0
1.72607               -0.4906267       -26.51905        -42.15968       -125.7376             -200               0             -200               0
1.73267               -0.5074259       -26.80835        -41.98461       -129.2705             -200               0             -200               0
1.73927               -0.5249559        -27.1016        -41.81014       -132.7794             -200               0             -200               0
1.74587               -0.5432366       -27.39875        -41.63575       -136.2641             -200               0             -200               0
1.75248               -0.5622827       -27.69976        -41.46093       -139.7247             -200               0             -200               0
1.75908                -0.582107       -28.00459        -41.28513       -143.1617             -200               0             -200               0
1.76568               -0.6027228       -28.31322        -41.10784       -146.5758             -200               0             -200               0
1.77228               -0.6241418       -28.62565        -40.92853       -149.9684             -200               0             -200               0
1.77888                -0.646373        -28.9419        -40.74669        -153.341             -200               0             -200               0
1.78548               -0.6694309         -29.262        -40.56183       -156.6957             -200               0             -200               0
1.79208               -0.6933243       -29.58601         -40.3735       -160.0348             -200               0             -200               0
1.79868               -0.7180664       -29.91398        -40.18127       -163.3612             -200               0             -200               0
1.80528               -0.7436709       -30.24603        -39.98477       -166.6779             -200               0             -200               0
1.81188               -0.7701537       -30.58226        -39.78369       -169.9884             -200               0             -200               0
1.81848               -0.7975343       -30.92282        -39.57776       -173.2962             -200               0             -200               0
1.82508               -0.8258347       -31.26786        -39.36678       -176.6053             -200               0             -200               0
1.83168               -0.8550817       -31.61755        -39.15063       -179.9196             -200               0             -200               0
1.83828                -0.885305       -31.97206        -38.92925        176.7569             -200               0             -200               0
1.84488                -0.916541       -32.33161        -38.70265          173.42             -200               0             -200               0
1.85149               -0.9488299       -32.69639        -38.47091        170.0658             -200               0             -200               0
1.85809               -0.9822195        -33.0666        -38.23418        166.6903             -200               0             -200               0
1.86469                 -1.01676       -33.44244        -37.99268        163.2899             -200               0             -200               0
1.87129                -1.052512       -33.82413        -37.74668         159.861             -200               0             -200               0
1.87789                 -1.08954       -34.21184        -37.49651        156.4004             -200               0             -200               0
1.88449                -1.127914       -34.60575        -37.24252        152.9052             -200               0             -200               0
1.89109                -1.167711       -35.00601        -36.98514        149.3728             -200               0             -200               0
1.89769                -1.209014       -35.41276        -36.72478        145.8009             -200               0             -200               0
1.90429                -1.251913       -35.82609        -36.46191        142.1877             -200               0             -200               0
1.91089                  -1.2965       -36.24608          -36.197        138.5316             -200               0             -200               0
1.91749                -1.342873       -36.67276        -35.93051        134.8313             -200               0             -200               0
1.92409                -1.391137       -37.10613        -35.66294         131.086             -200               0             -200               0
1.93069                -1.441398       -37.54614        -35.39475        127.2952             -200               0             -200               0
1.93729                -1.493766        -37.9927         -35.1264        123.4586             -200               0             -200               0
1.94389                -1.548356        -38.4457        -34.85835        119.5761             -200               0             -200               0
1.9505                 -1.605281       -38.90493        -34.59101        115.6481             -200               0             -200               0
1.9571                  -1.66466       -39.37017         -34.3248        111.6749             -200               0             -200               0
1.9637                 -1.726609       -39.84115        -34.06012        107.6573             -200               0             -200               0
1.9703                 -1.791249       -40.31756        -33.79732        103.5959             -200               0             -200               0
1.9769                 -1.858699       -40.79902        -33.53675        99.49188             -200               0             -200               0
1.9835                 -1.929075       -41.28512        -33.27873        95.34615             -200               0             -200               0
1.9901                 -2.002496       -41.77542        -33.02354        91.15991             -200               0             -200               0
1.9967                 -2.079079       -42.26942        -32.77147         86.9344             -200               0             -200               0
2.0033                 -2.158938       -42.76657        -32.52276        82.67089             -200               0             -200               0
2.0099                 -2.242189       -43.26633        -32.27763        78.37074             -200               0             -200               0
2.0165                 -2.328943       -43.76808        -32.03629        74.03529             -200               0             -200               0
2.0231                  -2.41931        -44.2712        -31.79893        69.66594             -200               0             -200               0
2.0297                 -2.513401       -44.77503        -31.56572        65.26407             -200               0             -200               0
2.0363                 -2.611323       -45.27887        -31.33679        60.83107             -200               0             -200               0
2.0429                 -2.713185       -45.78202         -31.1123        56.36832             -200               0             -200               0
2.0495                 -2.819093       -46.28376        -30.89234        51.87719             -200               0             -200               0
2.05611                -2.929154       -46.78332        -30.67704        47.35903             -200               0             -200               0
2.06271                -3.043476       -47.27994        -30.46647        42.81515             -200               0             -200               0
2.06931                -3.162168       -47.77282        -30.26072        38.24685             -200               0             -200               0
2.07591                -3.285343       -48.26115        -30.05987        33.65542             -200               0             -200               0
2.08251                -3.413113        -48.7441        -29.86396        29.04208             -200               0             -200               0
2.08911                -3.545599       -49.22083        -29.67305        24.40805             -200               0             -200               0
2.09571                -3.682924       -49.69042        -29.48718         19.7545             -200               0             -200               0
2.10231                -3.825217       -50.15198        -29.30638        15.08258             -200               0             -200               0
2.10891                -3.972618       -50.60456        -29.13069         10.3934             -200               0             -200               0
2.11551                 -4.12527       -51.04715        -28.96013        5.688052             -200               0             -200               0
2.12211                -4.283331       -51.47871         -28.7947       0.9675772             -200               0             -200               0
2.12871                -4.446966        -51.8981        -28.63443       -3.767001             -200               0             -200               0
2.13531                -4.616353       -52.30414        -28.47932       -8.514695             -200               0             -200               0
2.14191                -4.791688       -52.69555        -28.32938       -13.27454             -200               0             -200               0
2.14851                -4.973174       -53.07093         -28.1846        -18.0456             -200               0             -200               0
2.15512                -5.161035       -53.42873        -28.04498       -22.82696             -200               0             -200               0
2.16172                -5.355511       -53.76731        -27.91052       -27.61775             -200               0             -200               0
2.16832                -5.556857       -54.08478         -27.7812       -32.41711             -200               0             -200               0
2.17492                -5.765348        -54.3791        -27.65701       -37.22419             -200               0             -200               0
2.18152                 -5.98128       -54.64796        -27.53794       -42.03819             -200               0             -200               0
2.18812                -6.204963       -54.88876        -27.42398       -46.85831             -200               0             -200               0
2.19472                -6.436729       -55.09861         -27.3151       -51.68378             -200               0             -200               0
2.20132                -6.676929       -55.27422         -27.2113       -56.51383             -200               0             -200               0
2.20792                -6.925928       -55.41189        -27.11253       -61.34773             -200               0             -200               0
2.21452                -7.184107       -55.50741         -27.0188       -66.18477             -200               0             -200               0
2.22112                -7.451859       -55.55601        -26.93006       -71.02422             -200               0             -200               0
2.22772                -7.729584       -55.55227        -26.84631        -75.8654             -200               0             -200               0
2.23432                -8.017682       -55.49001         -26.7675       -80.70762             -200               0             -200               0
2.24092                -8.316544        -55.3622        -26.69362       -85.55022             -200               0             -200               0
2.24752                -8.626542       -55.16083        -26.62464       -90.39253             -200               0             -200               0
2.25413                -8.948009       -54.87676        -26.56053       -95.23392             -200               0             -200               0
2.26073                 -9.28122       -54.49956        -26.50126       -100.0737             -200               0             -200               0
2.26733                -9.626361       -54.01737        -26.44679       -104.9114             -200               0             -200               0
2.27393                -9.983493       -53.41669         -26.3971       -109.7462             -200               0             -200               0
2.28053                -10.35249       -52.68218        -26.35216       -114.5776             -200               0             -200               0
2.28713                  -10.733       -51.79657        -26.31193       -119.4049             -200               0             -200               0
2.29373                -11.12429       -50.74039        -26.27637       -124.2277             -200               0             -200               0