! TOUCHSTONE file generated by CST MICROWAVE STUDIO
! Date and time: Sat Mar  8 13:54:51 2025
! Project name: non_fractured.cst
! Parameters = {B=2.5; D=160; F=20; Feed=2.85625; L=100; M=10; R=0.384908; S=1; Theta=0; length=57.125; wave=114.25}
! Header version: 2024
! Port assignment regex: !\s*Touchstone port\s*([0-9]+)\s*=\s*(CST MWS port|CST DES external port|CST DES block port)\s*(.+)\s* \(\"(.*)\"\)(\s*mode\s*([0-9]+))?.*
! Touchstone port assignment:
! Touchstone port 1 = CST MWS port 1 ("")
! Touchstone port 2 = CST MWS port 2 ("")
# GHz S DB R 50
1                     -0.0174637         -9.8373        -69.03654       -142.4756             -200               0             -200               0
1.00662              -0.01837287       -9.928132        -68.81607        -146.084             -200               0             -200               0
1.01325              -0.01935204       -10.01922        -68.61728       -149.6479             -200               0             -200               0
1.01987              -0.02039424       -10.11052        -68.43927       -153.1537             -200               0             -200               0
1.02649              -0.02148672       -10.20199        -68.28103       -156.5882             -200               0             -200               0
1.03311              -0.02261993       -10.29363        -68.14142       -159.9376             -200               0             -200               0
1.03974              -0.02378025       -10.38542        -68.01913       -163.1884             -200               0             -200               0
1.04636              -0.02495518       -10.47737        -67.91266        -166.327             -200               0             -200               0
1.05298              -0.02613449        -10.5695        -67.82022       -169.3396             -200               0             -200               0
1.0596               -0.02730486       -10.66186        -67.73974       -172.2127             -200               0             -200               0
1.06623              -0.02845777        -10.7545         -67.6688       -174.9335             -200               0             -200               0
1.07285              -0.02958048       -10.84748        -67.60458       -177.4899             -200               0             -200               0
1.07947              -0.03066845       -10.94087         -67.5438       -179.8716             -200               0             -200               0
1.08609              -0.03171352       -11.03476        -67.48275        177.9293             -200               0             -200               0
1.09272              -0.03271203       -11.12925        -67.41727        175.9177             -200               0             -200               0
1.09934              -0.03366214       -11.22442        -67.34282         174.094             -200               0             -200               0
1.10596              -0.03456403       -11.32039        -67.25461         172.453             -200               0             -200               0
1.11258              -0.03541987       -11.41724        -67.14774        170.9837             -200               0             -200               0
1.11921              -0.03623658       -11.51507        -67.01747        169.6677             -200               0             -200               0
1.12583              -0.03701951       -11.61398        -66.85953        168.4798             -200               0             -200               0
1.13245                -0.037778       -11.71404        -66.67037        167.3885             -200               0             -200               0
1.13907              -0.03852423       -11.81534        -66.44752        166.3571             -200               0             -200               0
1.1457               -0.03926895       -11.91793        -66.18976        165.3455             -200               0             -200               0
1.15232              -0.04002619       -12.02185        -65.89722        164.3133             -200               0             -200               0
1.15894              -0.04081021       -12.12715        -65.57137        163.2218             -200               0             -200               0
1.16556              -0.04163746       -12.23385        -65.21485        162.0363             -200               0             -200               0
1.17219              -0.04252002       -12.34194        -64.83118        160.7281             -200               0             -200               0
1.17881              -0.04347486       -12.45141        -64.42452        159.2749             -200               0             -200               0
1.18543              -0.04451461       -12.56223        -63.99931        157.6616             -200               0             -200               0
1.19205              -0.04565289       -12.67438        -63.56001        155.8798             -200               0             -200               0
1.19868              -0.04689971       -12.78779        -63.11088        153.9266             -200               0             -200               0
1.2053               -0.04826498        -12.9024        -62.65583        151.8042             -200               0             -200               0
1.21192              -0.04975512       -13.01813        -62.19837        149.5182             -200               0             -200               0
1.21854              -0.05137686       -13.13492        -61.74149        147.0771             -200               0             -200               0
1.22517              -0.05313138       -13.25269        -61.28774        144.4912             -200               0             -200               0
1.23179              -0.05501899       -13.37133        -60.83921        141.7718             -200               0             -200               0
1.23841              -0.05703768        -13.4908        -60.39759        138.9308             -200               0             -200               0
1.24503              -0.05918327         -13.611        -59.96421        135.9802             -200               0             -200               0
1.25166              -0.06144931       -13.73187        -59.54007        132.9318             -200               0             -200               0
1.25828              -0.06382414       -13.85336         -59.1259         129.797             -200               0             -200               0
1.2649               -0.06630048       -13.97542        -58.72223        126.5868             -200               0             -200               0
1.27152              -0.06886422       -14.09803        -58.32937        123.3113             -200               0             -200               0
1.27815              -0.07150268       -14.22116        -57.94747        119.9804             -200               0             -200               0
1.28477              -0.07420245       -14.34483        -57.57656         116.603             -200               0             -200               0
1.29139              -0.07694843       -14.46906        -57.21654        113.1876             -200               0             -200               0
1.29801              -0.07972791       -14.59389        -56.86722         109.742             -200               0             -200               0
1.30464              -0.08252686       -14.71937        -56.52834        106.2734             -200               0             -200               0
1.31126              -0.08533419       -14.84557        -56.19954        102.7885             -200               0             -200               0
1.31788               -0.0881377       -14.97259        -55.88044        99.29354             -200               0             -200               0
1.3245               -0.09093066       -15.10053        -55.57058        95.79409             -200               0             -200               0
1.33113              -0.09370432        -15.2295        -55.26944        92.29533             -200               0             -200               0
1.33775               -0.0964569       -15.35962         -54.9765        88.80194             -200               0             -200               0
1.34437              -0.09918559       -15.49103        -54.69117        85.31812             -200               0             -200               0
1.35099               -0.1018917       -15.62386        -54.41282        81.84763             -200               0             -200               0
1.35762               -0.1045796       -15.75823        -54.14083        78.39374             -200               0             -200               0
1.36424                -0.107257       -15.89429        -53.87451        74.95925             -200               0             -200               0
1.37086               -0.1099324       -16.03216        -53.61318        71.54648             -200               0             -200               0
1.37748               -0.1126193       -16.17195        -53.35613        68.15726             -200               0             -200               0
1.38411               -0.1153315       -16.31376        -53.10264        64.79293             -200               0             -200               0
1.39073               -0.1180847        -16.4577        -52.85199         61.4543             -200               0             -200               0
1.39735                -0.120898       -16.60383        -52.60346        58.14168             -200               0             -200               0
1.40397               -0.1237894       -16.75222        -52.35633        54.85486             -200               0             -200               0
1.4106                  -0.12678       -16.90292        -52.10992         51.5931             -200               0             -200               0
1.41722               -0.1298887       -17.05593        -51.86356        48.35516             -200               0             -200               0
1.42384               -0.1331353       -17.21128        -51.61662        45.13932             -200               0             -200               0
1.43046               -0.1365393       -17.36894         -51.3685        41.94338             -200               0             -200               0
1.43709               -0.1401176       -17.52889        -51.11869        38.76471             -200               0             -200               0
1.44371               -0.1438867        -17.6911         -50.8667        35.60032             -200               0             -200               0
1.45033               -0.1478608        -17.8555        -50.61215        32.44687             -200               0             -200               0
1.45695               -0.1520513       -18.02203        -50.35469        29.30079             -200               0             -200               0
1.46358               -0.1564685       -18.19063        -50.09408         26.1583             -200               0             -200               0
1.4702                -0.1611173       -18.36121        -49.83016        23.01551             -200               0             -200               0
1.47682               -0.1660032        -18.5337        -49.56285        19.86851             -200               0             -200               0
1.48344               -0.1711256       -18.70803        -49.29213        16.71342             -200               0             -200               0
1.49007               -0.1764831       -18.88413         -49.0181        13.54647             -200               0             -200               0
1.49669               -0.1820719       -19.06195        -48.74089        10.36411             -200               0             -200               0
1.50331               -0.1878839       -19.24145        -48.46073        7.163004             -200               0             -200               0
1.50993               -0.1939114       -19.42258        -48.17788         3.94014             -200               0             -200               0
1.51656               -0.2001425       -19.60535        -47.89268       0.6928337             -200               0             -200               0
1.52318               -0.2065674       -19.78977        -47.60549       -2.581218             -200               0             -200               0
1.5298                -0.2131732       -19.97586        -47.31671        -5.88393             -200               0             -200               0
1.53642               -0.2199471       -20.16367        -47.02675       -9.216813             -200               0             -200               0
1.54305               -0.2268775        -20.3533        -46.73605       -12.58098             -200               0             -200               0
1.54967               -0.2339531       -20.54482        -46.44504       -15.97715             -200               0             -200               0
1.55629               -0.2411649       -20.73837        -46.15417       -19.40566             -200               0             -200               0
1.56291               -0.2485062       -20.93408        -45.86385       -22.86652             -200               0             -200               0
1.56954               -0.2559708       -21.13212        -45.57449       -26.35938             -200               0             -200               0
1.57616                -0.263559       -21.33265        -45.28648        -29.8836             -200               0             -200               0
1.58278               -0.2712714       -21.53586        -45.00019        -33.4383             -200               0             -200               0
1.5894                 -0.279114       -21.74195        -44.71594       -37.02232             -200               0             -200               0
1.59603               -0.2870967       -21.95113        -44.43405       -40.63432             -200               0             -200               0
1.60265               -0.2952315       -22.16357         -44.1548       -44.27279             -200               0             -200               0
1.60927               -0.3035368       -22.37951        -43.87841       -47.93609             -200               0             -200               0
1.61589               -0.3120355       -22.59911         -43.6051        -51.6224             -200               0             -200               0
1.62252               -0.3207505       -22.82257        -43.33503       -55.32989             -200               0             -200               0
1.62914               -0.3297124       -23.05006        -43.06836        -59.0566             -200               0             -200               0
1.63576               -0.3389509       -23.28171        -42.80519       -62.80058             -200               0             -200               0
1.64238               -0.3485019       -23.51768        -42.54558        -66.5598             -200               0             -200               0
1.64901               -0.3584019       -23.75806        -42.28958       -70.33229             -200               0             -200               0
1.65563               -0.3686899       -24.00294        -42.03721       -74.11604             -200               0             -200               0
1.66225               -0.3794011       -24.25237        -41.78844        -77.9091             -200               0             -200               0
1.66887               -0.3905794       -24.50641        -41.54322       -81.70956             -200               0             -200               0
1.6755                 -0.402261       -24.76505        -41.30148       -85.51558             -200               0             -200               0
1.68212               -0.4144845       -25.02828        -41.06312       -89.32537             -200               0             -200               0
1.68874               -0.4272879       -25.29607        -40.82801       -93.13726             -200               0             -200               0
1.69536               -0.4407037       -25.56837        -40.59599       -96.94966             -200               0             -200               0
1.70199               -0.4547649       -25.84509        -40.36689       -100.7611             -200               0             -200               0
1.70861               -0.4694993       -26.12617        -40.14052       -104.5703             -200               0             -200               0
1.71523               -0.4849339       -26.41151        -39.91666       -108.3759             -200               0             -200               0
1.72185                -0.501092       -26.70102        -39.69508        -112.177             -200               0             -200               0
1.72848               -0.5179914       -26.99459        -39.47554       -115.9726             -200               0             -200               0
1.7351                -0.5356478       -27.29215        -39.25776       -119.7621             -200               0             -200               0
1.74172                -0.554072        -27.5936        -39.04149       -123.5449             -200               0             -200               0
1.74834               -0.5732765        -27.8989        -38.82643       -127.3205             -200               0             -200               0
1.75497               -0.5932654       -28.20798        -38.61231       -131.0889             -200               0             -200               0
1.76159               -0.6140448       -28.52084        -38.39884       -134.8501             -200               0             -200               0
1.76821               -0.6356156       -28.83746        -38.18571       -138.6044             -200               0             -200               0
1.77483               -0.6579816       -29.15789        -37.97266       -142.3521             -200               0             -200               0
1.78146               -0.6811446       -29.48219         -37.7594       -146.0939             -200               0             -200               0
1.78808               -0.7051082       -29.81046        -37.54565       -149.8307             -200               0             -200               0
1.7947                -0.7298758       -30.14283        -37.33118       -153.5636             -200               0             -200               0
1.80132               -0.7554543       -30.47946        -37.11572       -157.2936             -200               0             -200               0
1.80795               -0.7818563       -30.82057        -36.89908       -161.0223             -200               0             -200               0
1.81457               -0.8090961       -31.16637        -36.68105       -164.7513             -200               0             -200               0
1.82119               -0.8371934       -31.51711        -36.46145       -168.4821             -200               0             -200               0
1.82781               -0.8661766       -31.87309        -36.24016       -172.2166             -200               0             -200               0
1.83444               -0.8960783       -32.23461        -36.01704       -175.9568             -200               0             -200               0
1.84106               -0.9269399       -32.60196        -35.79204       -179.7046             -200               0             -200               0
1.84768               -0.9588093       -32.97549        -35.56508        176.5379             -200               0             -200               0
1.8543                -0.9917452       -33.35549        -35.33617        172.7686             -200               0             -200               0
1.86093                -1.025814       -33.74231        -35.10531        168.9855             -200               0             -200               0
1.86755                 -1.06109       -34.13624        -34.87256        165.1866             -200               0             -200               0
1.87417                -1.097657       -34.53756          -34.638        161.3698             -200               0             -200               0
1.88079                -1.135607       -34.94653        -34.40173        157.5332             -200               0             -200               0
1.88742                 -1.17504       -35.36338         -34.1639        153.6751             -200               0             -200               0
1.89404                -1.216067       -35.78831        -33.92466        149.7936             -200               0             -200               0
1.90066                -1.258802       -36.22143        -33.68421        145.8873             -200               0             -200               0
1.90728                -1.303366       -36.66285        -33.44274        141.9546             -200               0             -200               0
1.91391                -1.349891       -37.11259        -33.20049        137.9943             -200               0             -200               0
1.92053                -1.398506       -37.57064        -32.95768        134.0052             -200               0             -200               0
1.92715                -1.449351        -38.0369        -32.71457        129.9864             -200               0             -200               0
1.93377                -1.502565       -38.51122         -32.4714         125.937             -200               0             -200               0
1.9404                  -1.55829       -38.99339        -32.22844        121.8563             -200               0             -200               0
1.94702                -1.616672        -39.4831        -31.98596        117.7439             -200               0             -200               0
1.95364                -1.677853       -39.98003         -31.7442        113.5994             -200               0             -200               0
1.96026                -1.741978       -40.48374        -31.50345        109.4225             -200               0             -200               0
1.96689                -1.809189       -40.99376        -31.26394        105.2132             -200               0             -200               0
1.97351                -1.879625       -41.50955        -31.02594        100.9715             -200               0             -200               0
1.98013                -1.953426       -42.03052        -30.78969        96.69765             -200               0             -200               0
1.98675                -2.030726       -42.55602        -30.55542        92.39181             -200               0             -200               0
1.99338                -2.111653       -43.08534        -30.32336        88.05438             -200               0             -200               0
2                      -2.196336       -43.61776        -30.09374        83.68582             -200               0             -200               0
2.00662                -2.284898       -44.15249        -29.86675        79.28666             -200               0             -200               0
2.01325                -2.377456       -44.68872        -29.64259        74.85747             -200               0             -200               0
2.01987                -2.474124        -45.2256        -29.42145        70.39894             -200               0             -200               0
2.02649                -2.575015       -45.76226        -29.20351        65.91174             -200               0             -200               0
2.03311                -2.680234       -46.29782        -28.98893        61.39665             -200               0             -200               0
2.03974                -2.789885       -46.83136        -28.77787        56.85443             -200               0             -200               0
2.04636                -2.904073       -47.36197        -28.57046        52.28591             -200               0             -200               0
2.05298                -3.022898       -47.88873        -28.36683        47.69191             -200               0             -200               0
2.0596                  -3.14646       -48.41068        -28.16713        43.07329             -200               0             -200               0
2.06623                -3.274861       -48.92689        -27.97145        38.43092             -200               0             -200               0
2.07285                -3.408207        -49.4364        -27.77991        33.76566             -200               0             -200               0
2.07947                -3.546603       -49.93826        -27.59259         29.0784             -200               0             -200               0
2.08609                -3.690163       -50.43149         -27.4096           24.37             -200               0             -200               0
2.09272                -3.839007        -50.9151          -27.231        19.64136             -200               0             -200               0
2.09934                 -3.99326       -51.38808        -27.05689        14.89335             -200               0             -200               0
2.10596                -4.153062       -51.84939        -26.88731        10.12682             -200               0             -200               0
2.11258                -4.318564       -52.29795        -26.72234        5.342641             -200               0             -200               0
2.11921                -4.489925       -52.73262        -26.56204       0.5416639             -200               0             -200               0
2.12583                -4.667328        -53.1522        -26.40644       -4.275272             -200               0             -200               0
2.13245                -4.850967       -53.55538        -26.25561        -9.10734             -200               0             -200               0
2.13907                -5.041058       -53.94078        -26.10957       -13.95372             -200               0             -200               0
2.1457                 -5.237837       -54.30685        -25.96837       -18.81361             -200               0             -200               0
2.15232                -5.441562        -54.6519        -25.83204       -23.68621             -200               0             -200               0
2.15894                -5.652516       -54.97402        -25.70061       -28.57075             -200               0             -200               0
2.16556                -5.871005       -55.27109        -25.57411       -33.46645             -200               0             -200               0
2.17219                -6.097361       -55.54071        -25.45255       -38.37256             -200               0             -200               0
2.17881                -6.331942       -55.78013        -25.33596       -43.28833             -200               0             -200               0
2.18543                -6.575132       -55.98625        -25.22436       -48.21303             -200               0             -200               0
2.19205                -6.827341        -56.1555        -25.11776       -53.14594             -200               0             -200               0
2.19868                   -7.089        -56.2838        -25.01618       -58.08635             -200               0             -200               0
2.2053                 -7.360562       -56.36646        -24.91963       -63.03355             -200               0             -200               0
2.21192                -7.642499       -56.39812        -24.82812       -67.98685             -200               0             -200               0
2.21854                -7.935289       -56.37257        -24.74165       -72.94557             -200               0             -200               0
2.22517                -8.239416       -56.28267        -24.66023       -77.90904             -200               0             -200               0
2.23179                -8.555352       -56.12023        -24.58387       -82.87659             -200               0             -200               0
2.23841                -8.883542       -55.87579        -24.51258       -87.84755             -200               0             -200               0
2.24503                -9.224381       -55.53849        -24.44635       -92.82126             -200               0             -200               0
2.25166                -9.578187        -55.0958        -24.38519       -97.79709             -200               0             -200               0
2.25828                -9.945153       -54.53336        -24.32909       -102.7744             -200               0             -200               0
2.2649                  -10.3253       -53.83471        -24.27806       -107.7525             -200               0             -200               0
2.27152                -10.71838       -52.98107         -24.2321       -112.7308             -200               0             -200               0
2.27815                -11.12382       -51.95111        -24.19121       -117.7086             -200               0             -200               0
2.28477                -11.54055       -50.72092        -24.15537       -122.6854             -200               0             -200               0
2.29139                -11.96685        -49.2639        -24.12459       -127.6604             -200               0             -200               0
2.29801                -12.40018       -47.55115        -24.09887        -132.633             -200               0             -200               0