! TOUCHSTONE file generated by CST MICROWAVE STUDIO
! Date and time: Sat Mar  8 13:54:48 2025
! Project name: non_fractured.cst
! Parameters = {B=2.5; D=160; F=15; Feed=2.85625; L=100; M=10; R=0.384908; S=2; Theta=0; length=57.125; wave=114.25}
! Header version: 2024
! Port assignment regex: !\s*Touchstone port\s*([0-9]+)\s*=\s*(CST MWS port|CST DES external port|CST DES block port)\s*(.+)\s* \(\"(.*)\"\)(\s*mode\s*([0-9]+))?.*
! Touchstone port assignment:
! Touchstone port 1 = CST MWS port 1 ("")
! Touchstone port 2 = CST MWS port 2 ("")
# GHz S DB R 50
1                    -0.01791228       -9.755764        -70.47449       -131.3047             -200               0             -200               0
1.0066               -0.01868985       -9.844895        -70.00648       -134.5939             -200               0             -200               0
1.0132               -0.01952764       -9.934417        -69.56833       -137.9989             -200               0             -200               0
1.0198               -0.02042058        -10.0243        -69.15931       -141.4926             -200               0             -200               0
1.0264               -0.02136027        -10.1145        -68.77855       -145.0511             -200               0             -200               0
1.033                -0.02234286       -10.20502        -68.42508       -148.6536             -200               0             -200               0
1.0396               -0.02335904       -10.29583        -68.09786       -152.2812             -200               0             -200               0
1.0462                -0.0244008       -10.38694        -67.79585       -155.9168             -200               0             -200               0
1.05281              -0.02546133       -10.47835        -67.51794        -159.545             -200               0             -200               0
1.05941              -0.02653157       -10.57009        -67.26303       -163.1512             -200               0             -200               0
1.06601              -0.02760311       -10.66217        -67.02996       -166.7216             -200               0             -200               0
1.07261              -0.02866985       -10.75464        -66.81751       -170.2432             -200               0             -200               0
1.07921              -0.02972491       -10.84755         -66.6244       -173.7033             -200               0             -200               0
1.08581              -0.03076321       -10.94094        -66.44925       -177.0899             -200               0             -200               0
1.09241              -0.03178051       -11.03488        -66.29055         179.609             -200               0             -200               0
1.09901              -0.03277347       -11.12943        -66.14665        176.4048             -200               0             -200               0
1.10561              -0.03374154       -11.22466        -66.01571        173.3084             -200               0             -200               0
1.11221              -0.03468373       -11.32064        -65.89567          170.33             -200               0             -200               0
1.11881              -0.03560208       -11.41744        -65.78425        167.4791             -200               0             -200               0
1.12541              -0.03650169       -11.51513        -65.67891        164.7639             -200               0             -200               0
1.13201               -0.0373836       -11.61378        -65.57683        162.1908             -200               0             -200               0
1.13861              -0.03825676       -11.71344        -65.47495        159.7643             -200               0             -200               0
1.14521              -0.03912813       -11.81419        -65.36994        157.4861             -200               0             -200               0
1.15182              -0.04000503       -11.91605        -65.25832        155.3545             -200               0             -200               0
1.15842              -0.04089704       -12.01908        -65.13653        153.3642             -200               0             -200               0
1.16502              -0.04181545       -12.12329        -65.00101        151.5056             -200               0             -200               0
1.17162              -0.04276677       -12.22872        -64.84838        149.7647             -200               0             -200               0
1.17822              -0.04376516       -12.33537        -64.67562        148.1228             -200               0             -200               0
1.18482               -0.0448193       -12.44324        -64.48021        146.5577             -200               0             -200               0
1.19142              -0.04593877       -12.55232        -64.26033        145.0438             -200               0             -200               0
1.19802              -0.04713237       -12.66259        -64.01493        143.5534             -200               0             -200               0
1.20462              -0.04840872       -12.77402         -63.7438        142.0583             -200               0             -200               0
1.21122              -0.04977465       -12.88658        -63.44763        140.5308             -200               0             -200               0
1.21782              -0.05123552       -13.00024        -63.12784        138.9454             -200               0             -200               0
1.22442              -0.05279595       -13.11493        -62.78654        137.2798             -200               0             -200               0
1.23102              -0.05445855       -13.23062        -62.42633        135.5154             -200               0             -200               0
1.23762              -0.05622339       -13.34725        -62.05011        133.6382             -200               0             -200               0
1.24422              -0.05809087       -13.46479        -61.66097        131.6384             -200               0             -200               0
1.25083              -0.06005899       -13.58318        -61.26196        129.5102             -200               0             -200               0
1.25743               -0.0621237       -13.70239        -60.85606        127.2517             -200               0             -200               0
1.26403              -0.06427898       -13.82238        -60.44599        124.8638             -200               0             -200               0
1.27063              -0.06652083       -13.94312        -60.03426        122.3501             -200               0             -200               0
1.27723              -0.06883925       -14.06461        -59.62306        119.7159             -200               0             -200               0
1.28383              -0.07122699       -14.18684        -59.21428        116.9682             -200               0             -200               0
1.29043               -0.0736767       -14.30981        -58.80953        114.1145             -200               0             -200               0
1.29703              -0.07617834       -14.43354        -58.41016        111.1632             -200               0             -200               0
1.30363              -0.07872301       -14.55806        -58.01723        108.1228             -200               0             -200               0
1.31023              -0.08130304       -14.68341        -57.63161         105.002             -200               0             -200               0
1.31683              -0.08390923       -14.80964        -57.25395        101.8091             -200               0             -200               0
1.32343              -0.08653654       -14.93683        -56.88475        98.55234             -200               0             -200               0
1.33003              -0.08917791       -15.06504        -56.52432        95.23969             -200               0             -200               0
1.33663              -0.09182955       -15.19436        -56.17288        91.87862             -200               0             -200               0
1.34323              -0.09448851       -15.32487        -55.83051        88.47624             -200               0             -200               0
1.34984              -0.09715387       -15.45668         -55.4972        85.03923             -200               0             -200               0
1.35644              -0.09982735       -15.58988        -55.17288        81.57387             -200               0             -200               0
1.36304                -0.102511       -15.72457        -54.85737          78.086             -200               0             -200               0
1.36964               -0.1052095       -15.86084        -54.55047        74.58106             -200               0             -200               0
1.37624               -0.1079301        -15.9988        -54.25189        71.06407             -200               0             -200               0
1.38284               -0.1106818       -16.13855        -53.96132        67.53968             -200               0             -200               0
1.38944               -0.1134741       -16.28015         -53.6784        64.01213             -200               0             -200               0
1.39604               -0.1163191        -16.4237        -53.40273        60.48533             -200               0             -200               0
1.40264                -0.119228       -16.56926        -53.13389        56.96277             -200               0             -200               0
1.40924               -0.1222173       -16.71689        -52.87142        53.44759             -200               0             -200               0
1.41584               -0.1253001       -16.86664        -52.61486         49.9426             -200               0             -200               0
1.42244               -0.1284923       -17.01853         -52.3637        46.45022             -200               0             -200               0
1.42904               -0.1318086        -17.1726        -52.11744         42.9725             -200               0             -200               0
1.43564               -0.1352629       -17.32885        -51.87557        39.51117             -200               0             -200               0
1.44224               -0.1388713       -17.48728        -51.63755        36.06756             -200               0             -200               0
1.44884               -0.1426463       -17.64788        -51.40285        32.64267             -200               0             -200               0
1.45545               -0.1466002       -17.81063        -51.17094         29.2371             -200               0             -200               0
1.46205               -0.1507446       -17.97551        -50.94131        25.85115             -200               0             -200               0
1.46865               -0.1550887       -18.14246        -50.71343        22.48474             -200               0             -200               0
1.47525               -0.1596397       -18.31148        -50.48681        19.13742             -200               0             -200               0
1.48185               -0.1644053       -18.48249        -50.26098        15.80846             -200               0             -200               0
1.48845               -0.1693881       -18.65547        -50.03547        12.49678             -200               0             -200               0
1.49505               -0.1745911       -18.83039        -49.80988        9.201039             -200               0             -200               0
1.50165               -0.1800148        -19.0072        -49.58382        5.919602             -200               0             -200               0
1.50825                -0.185658       -19.18587        -49.35695        2.650615             -200               0             -200               0
1.51485               -0.1915187        -19.3664        -49.12895      -0.6079809             -200               0             -200               0
1.52145               -0.1975928       -19.54877        -48.89959       -3.858407             -200               0             -200               0
1.52805               -0.2038753       -19.73299        -48.66864       -7.103005             -200               0             -200               0
1.53465               -0.2103612       -19.91908        -48.43597       -10.34419             -200               0             -200               0
1.54125               -0.2170447       -20.10707        -48.20145       -13.58443             -200               0             -200               0
1.54785               -0.2239198         -20.297        -47.96503       -16.82616             -200               0             -200               0
1.55446                 -0.23098       -20.48895         -47.7267       -20.07177             -200               0             -200               0
1.56106               -0.2382239       -20.68299        -47.48651       -23.32358             -200               0             -200               0
1.56766                -0.245645       -20.87921        -47.24451       -26.58375             -200               0             -200               0
1.57426               -0.2532417       -21.07771        -47.00084       -29.85432             -200               0             -200               0
1.58086               -0.2610139       -21.27863        -46.75564        -33.1371             -200               0             -200               0
1.58746               -0.2689646       -21.48208        -46.50908       -36.43374             -200               0             -200               0
1.59406               -0.2770971        -21.6882        -46.26136       -39.74564             -200               0             -200               0
1.60066               -0.2854175       -21.89714        -46.01271       -43.07399             -200               0             -200               0
1.60726               -0.2939361       -22.10905        -45.76334       -46.41972             -200               0             -200               0
1.61386               -0.3026648       -22.32407         -45.5135       -49.78354             -200               0             -200               0
1.62046               -0.3116175       -22.54235        -45.26342       -53.16593             -200               0             -200               0
1.62706               -0.3208132       -22.76404        -45.01334       -56.56716             -200               0             -200               0
1.63366                -0.330271       -22.98928        -44.76348       -59.98726             -200               0             -200               0
1.64026               -0.3400133       -23.21819        -44.51407        -63.4261             -200               0             -200               0
1.64686               -0.3500654        -23.4509        -44.26531       -66.88335             -200               0             -200               0
1.65347               -0.3604538       -23.68751        -44.01739       -70.35853             -200               0             -200               0
1.66007               -0.3712073       -23.92812        -43.77049       -73.85103             -200               0             -200               0
1.66667               -0.3823547        -24.1728        -43.52475       -77.36012             -200               0             -200               0
1.67327               -0.3939264       -24.42163        -43.28031       -80.88496             -200               0             -200               0
1.67987               -0.4059543       -24.67465        -43.03726       -84.42464             -200               0             -200               0
1.68647               -0.4184678       -24.93189        -42.79571       -87.97821             -200               0             -200               0
1.69307               -0.4314997       -25.19337        -42.55571       -91.54465             -200               0             -200               0
1.69967               -0.4450802       -25.45909        -42.31731       -95.12295             -200               0             -200               0
1.70627               -0.4592365       -25.72905        -42.08052        -98.7121             -200               0             -200               0
1.71287               -0.4739973       -26.00323        -41.84533       -102.3111             -200               0             -200               0
1.71947               -0.4893904       -26.28161        -41.61173       -105.9189             -200               0             -200               0
1.72607               -0.5054404       -26.56414        -41.37966       -109.5347             -200               0             -200               0
1.73267               -0.5221702        -26.8508        -41.14908       -113.1576             -200               0             -200               0
1.73927               -0.5396009       -27.14154        -40.91989       -116.7868             -200               0             -200               0
1.74587               -0.5577528       -27.43634        -40.69201       -120.4216             -200               0             -200               0
1.75248               -0.5766428       -27.73518        -40.46532       -124.0614             -200               0             -200               0
1.75908               -0.5962884       -28.03802         -40.2397       -127.7058             -200               0             -200               0
1.76568               -0.6167047       -28.34486        -40.01503       -131.3542             -200               0             -200               0
1.77228               -0.6379059        -28.6557        -39.79117       -135.0065             -200               0             -200               0
1.77888               -0.6599056       -28.97058        -39.56798       -138.6626             -200               0             -200               0
1.78548               -0.6827176       -29.28951         -39.3453       -142.3223             -200               0             -200               0
1.79208               -0.7063563       -29.61258          -39.123       -145.9859             -200               0             -200               0
1.79868               -0.7308357       -29.93983        -38.90092       -149.6536             -200               0             -200               0
1.80528               -0.7561744       -30.27139        -38.67893       -153.3257             -200               0             -200               0
1.81188               -0.7823893       -30.60735        -38.45689       -157.0028             -200               0             -200               0
1.81848               -0.8095035       -30.94785        -38.23467       -160.6855             -200               0             -200               0
1.82508               -0.8375407       -31.29305        -38.01216       -164.3744             -200               0             -200               0
1.83168               -0.8665291       -31.64311        -37.78924       -168.0705             -200               0             -200               0
1.83828               -0.8965015       -31.99821        -37.56584       -171.7747             -200               0             -200               0
1.84488                -0.927496       -32.35855        -37.34186       -175.4879             -200               0             -200               0
1.85149               -0.9595554       -32.72431        -37.11725       -179.2113             -200               0             -200               0
1.85809               -0.9927282       -33.09569        -36.89197         177.054             -200               0             -200               0
1.86469                -1.027067        -33.4729          -36.666        173.3069             -200               0             -200               0
1.87129                -1.062634       -33.85612        -36.43933        169.5461             -200               0             -200               0
1.87789                -1.099495       -34.24554        -36.21198        165.7705             -200               0             -200               0
1.88449                -1.137722       -34.64133        -35.98398        161.9789             -200               0             -200               0
1.89109                -1.177393       -35.04362        -35.75538        158.1699             -200               0             -200               0
1.89769                -1.218592       -35.45253        -35.52626        154.3426             -200               0             -200               0
1.90429                -1.261409       -35.86818         -35.2967        150.4957             -200               0             -200               0
1.91089                -1.305939       -36.29061        -35.06681        146.6282             -200               0             -200               0
1.91749                -1.352283       -36.71985         -34.8367        142.7391             -200               0             -200               0
1.92409                -1.400544        -37.1559        -34.60651        138.8275             -200               0             -200               0
1.93069                 -1.45083       -37.59869        -34.37639        134.8924             -200               0             -200               0
1.93729                -1.503252       -38.04813         -34.1465        130.9333             -200               0             -200               0
1.94389                -1.557925       -38.50405        -33.91698        126.9493             -200               0             -200               0
1.9505                 -1.614965        -38.9663        -33.68803          122.94             -200               0             -200               0
1.9571                 -1.674489       -39.43461        -33.45981        118.9047             -200               0             -200               0
1.9637                 -1.736616       -39.90869         -33.2325        114.8433             -200               0             -200               0
1.9703                 -1.801463       -40.38823         -33.0063        110.7553             -200               0             -200               0
1.9769                 -1.869151       -40.87283        -32.78139        106.6405             -200               0             -200               0
1.9835                 -1.939798       -41.36207        -32.55794         102.499             -200               0             -200               0
1.9901                  -2.01352       -41.85549        -32.33615        98.33054             -200               0             -200               0
1.9967                 -2.090433       -42.35256         -32.1162        94.13533             -200               0             -200               0
2.0033                  -2.17065       -42.85276        -31.89826        89.91349             -200               0             -200               0
2.0099                 -2.254284       -43.35549        -31.68251        85.66521             -200               0             -200               0
2.0165                 -2.341445       -43.86015        -31.46912        81.39081             -200               0             -200               0
2.0231                 -2.432242       -44.36609        -31.25825        77.09061             -200               0             -200               0
2.0297                 -2.526779       -44.87265        -31.05006        72.76503             -200               0             -200               0
2.0363                 -2.625165       -45.37913         -30.8447        68.41453             -200               0             -200               0
2.0429                 -2.727499       -45.88482        -30.64231        64.03961             -200               0             -200               0
2.0495                 -2.833887         -46.389        -30.44304        59.64082             -200               0             -200               0
2.05611                -2.944431       -46.89092        -30.24701        55.21873             -200               0             -200               0
2.06271                -3.059233       -47.38982        -30.05435        50.77397             -200               0             -200               0
2.06931                -3.178399       -47.88493        -29.86517        46.30718             -200               0             -200               0
2.07591                -3.302035       -48.37546        -29.67958        41.81902             -200               0             -200               0
2.08251                 -3.43025       -48.86061         -29.4977        37.31017             -200               0             -200               0
2.08911                -3.563159       -49.33956        -29.31961        32.78135             -200               0             -200               0
2.09571                 -3.70088       -49.81149        -29.14541        28.23326             -200               0             -200               0
2.10231                -3.843541       -50.27554        -28.97518        23.66664             -200               0             -200               0
2.10891                -3.991273       -50.73081        -28.80899         19.0822             -200               0             -200               0
2.11551                -4.144222       -51.17638        -28.64694        14.48071             -200               0             -200               0
2.12211                -4.302543       -51.61131        -28.48907        9.862883             -200               0             -200               0
2.12871                -4.466401       -52.03456        -28.33545         5.22948             -200               0             -200               0
2.13531                -4.635976       -52.44506        -28.18614        0.581239             -200               0             -200               0
2.14191                -4.811467       -52.84163         -28.0412       -4.081095             -200               0             -200               0
2.14851                -4.993085       -53.22301        -27.90066       -8.756782             -200               0             -200               0
2.15512                -5.181061       -53.58782        -27.76458       -13.44508             -200               0             -200               0
2.16172                -5.375648       -53.93452          -27.633       -18.14527             -200               0             -200               0
2.16832                -5.577119       -54.26143        -27.50594       -22.85661             -200               0             -200               0
2.17492                -5.785767       -54.56664        -27.38345       -27.57838             -200               0             -200               0
2.18152                -6.001913       -54.84801        -27.26555       -32.30987             -200               0             -200               0
2.18812                -6.225898       -55.10314        -27.15227       -37.05035             -200               0             -200               0
2.19472                -6.458092       -55.32931        -27.04363       -41.79912             -200               0             -200               0
2.20132                -6.698885       -55.52339        -26.93966       -46.55549             -200               0             -200               0
2.20792                -6.948696       -55.68185        -26.84037       -51.31876             -200               0             -200               0
2.21452                -7.207964       -55.80065        -26.74577       -56.08824             -200               0             -200               0
2.22112                -7.477155       -55.87513        -26.65588       -60.86324             -200               0             -200               0
2.22772                -7.756744           -55.9        -26.57072       -65.64309             -200               0             -200               0
2.23432                -8.047227       -55.86917        -26.49028       -70.42711             -200               0             -200               0
2.24092                -8.349103        -55.7756        -26.41458       -75.21464             -200               0             -200               0
2.24752                -8.662864       -55.61124        -26.34362       -80.00501             -200               0             -200               0
2.25413                -8.988986       -55.36682        -26.27741       -84.79756             -200               0             -200               0
2.26073                -9.327903       -55.03163        -26.21594       -89.59163             -200               0             -200               0
2.26733                -9.679985       -54.59337        -26.15921       -94.38658             -200               0             -200               0
2.27393                -10.04549       -54.03789        -26.10724       -99.18174             -200               0             -200               0
2.28053                -10.42452       -53.34889           -26.06       -103.9765             -200               0             -200               0
2.28713                -10.81696       -52.50774        -26.01749       -108.7701             -200               0             -200               0
2.29373                -11.22235       -51.49316        -25.97971       -113.5621             -200               0             -200               0