! TOUCHSTONE file generated by CST MICROWAVE STUDIO
! Date and time: Sat Mar  8 13:54:32 2025
! Project name: non_fractured.cst
! Parameters = {B=2.5; D=160; F=5; Feed=2.85625; L=100; M=10; R=0.384908; S=1; Theta=0; length=57.125; wave=114.25}
! Header version: 2024
! Port assignment regex: !\s*Touchstone port\s*([0-9]+)\s*=\s*(CST MWS port|CST DES external port|CST DES block port)\s*(.+)\s* \(\"(.*)\"\)(\s*mode\s*([0-9]+))?.*
! Touchstone port assignment:
! Touchstone port 1 = CST MWS port 1 ("")
! Touchstone port 2 = CST MWS port 2 ("")
# GHz S DB R 50
1                    -0.01947077       -9.747653        -67.58071       -99.74392             -200               0             -200               0
1.0066               -0.01992055       -9.835182        -66.95178       -106.2716             -200               0             -200               0
1.0132               -0.02039675       -9.923463        -66.38532       -112.7008             -200               0             -200               0
1.0198               -0.02090492       -10.01249        -65.87533       -119.0447             -200               0             -200               0
1.0264               -0.02144848       -10.10225          -65.417       -125.3127             -200               0             -200               0
1.033                -0.02203108       -10.19272        -65.00649       -131.5118             -200               0             -200               0
1.0396                -0.0226554        -10.2839        -64.64073        -137.647             -200               0             -200               0
1.0462               -0.02332362       -10.37577        -64.31725       -143.7216             -200               0             -200               0
1.05281              -0.02403911       -10.46829         -64.0341       -149.7379             -200               0             -200               0
1.05941              -0.02480055       -10.56144        -63.78976       -155.6969             -200               0             -200               0
1.06601              -0.02560652       -10.65522        -63.58312       -161.5989             -200               0             -200               0
1.07261              -0.02645941       -10.74958        -63.41339        -167.443             -200               0             -200               0
1.07921              -0.02735352       -10.84452        -63.28008       -173.2277             -200               0             -200               0
1.08581              -0.02828679       -10.94003        -63.18301       -178.9504             -200               0             -200               0
1.09241              -0.02925757       -11.03608         -63.1223        175.3924             -200               0             -200               0
1.09901              -0.03025988       -11.13268        -63.09832        169.8054             -200               0             -200               0
1.10561              -0.03128894       -11.22984        -63.11176        164.2945             -200               0             -200               0
1.11221              -0.03234165       -11.32754        -63.16362        158.8674             -200               0             -200               0
1.11881              -0.03341133       -11.42582         -63.2552        153.5335             -200               0             -200               0
1.12541              -0.03449312       -11.52469        -63.38818        148.3046             -200               0             -200               0
1.13201              -0.03558365       -11.62418        -63.56465        143.1956             -200               0             -200               0
1.13861              -0.03667811       -11.72433        -63.78711        138.2255             -200               0             -200               0
1.14521               -0.0377737       -11.82518        -64.05859        133.4183             -200               0             -200               0
1.15182               -0.0388656       -11.92678        -64.38266        128.8051             -200               0             -200               0
1.15842              -0.03995272       -12.02917        -64.76345        124.4263             -200               0             -200               0
1.16502              -0.04103468       -12.13241        -65.20572        120.3353             -200               0             -200               0
1.17162              -0.04211046       -12.23657        -65.71465        116.6037             -200               0             -200               0
1.17822              -0.04318212       -12.34171        -66.29563        113.3286             -200               0             -200               0
1.18482              -0.04425213       -12.44788        -66.95335        110.6433             -200               0             -200               0
1.19142              -0.04532406       -12.55514        -67.69003        108.7324             -200               0             -200               0
1.19802              -0.04640363       -12.66356        -68.50157        107.8496             -200               0             -200               0
1.20462              -0.04749539       -12.77318        -69.36977        108.3341             -200               0             -200               0
1.21122              -0.04860637       -12.88406        -70.24818        110.5989             -200               0             -200               0
1.21782               -0.0497473       -12.99624        -71.04167        115.0307             -200               0             -200               0
1.22442               -0.0509228       -13.10976         -71.5943        121.7043             -200               0             -200               0
1.23102              -0.05214625       -13.22464        -71.72746        129.9588             -200               0             -200               0
1.23762              -0.05342322       -13.34092        -71.34974        138.3343             -200               0             -200               0
1.24422              -0.05476714       -13.45859        -70.53501        145.3142             -200               0             -200               0
1.25083              -0.05618577       -13.57767        -69.45814        150.1347             -200               0             -200               0
1.25743                -0.057689       -13.69815        -68.28086        152.8078             -200               0             -200               0
1.26403              -0.05928565       -13.82002        -67.10494        153.7037             -200               0             -200               0
1.27063              -0.06098453       -13.94326        -65.98113        153.2409             -200               0             -200               0
1.27723              -0.06279214       -14.06785        -64.92977        151.7694             -200               0             -200               0
1.28383              -0.06471542       -14.19375        -63.95584        149.5533             -200               0             -200               0
1.29043              -0.06676033       -14.32094        -63.05736        146.7854             -200               0             -200               0
1.29703              -0.06893113       -14.44937         -62.2295        143.6057             -200               0             -200               0
1.30363                -0.071229         -14.579        -61.46661        140.1166             -200               0             -200               0
1.31023              -0.07365576        -14.7098        -60.76313         136.394             -200               0             -200               0
1.31683              -0.07621114       -14.84172         -60.1139        132.4955             -200               0             -200               0
1.32343              -0.07889448       -14.97474        -59.51428        128.4653             -200               0             -200               0
1.33003               -0.0817016       -15.10883        -58.96022        124.3381             -200               0             -200               0
1.33663              -0.08463155       -15.24396        -58.44812         120.142             -200               0             -200               0
1.34323              -0.08767688       -15.38012        -57.97486        115.8996             -200               0             -200               0
1.34984               -0.0908339        -15.5173        -57.53768        111.6303             -200               0             -200               0
1.35644              -0.09409512        -15.6555        -57.13414        107.3504             -200               0             -200               0
1.36304              -0.09745586       -15.79475        -56.76206        103.0743             -200               0             -200               0
1.36964               -0.1009086       -15.93505        -56.41949        98.81497             -200               0             -200               0
1.37624               -0.1044477       -16.07645        -56.10462        94.58423             -200               0             -200               0
1.38284               -0.1080679       -16.21899        -55.81581        90.39312             -200               0             -200               0
1.38944               -0.1117644       -16.36273        -55.55148        86.25216             -200               0             -200               0
1.39604                -0.115532       -16.50772        -55.31013        82.17152             -200               0             -200               0
1.40264                 -0.11937       -16.65404        -55.09026        78.16112             -200               0             -200               0
1.40924               -0.1232757       -16.80176        -54.89037        74.23074             -200               0             -200               0
1.41584               -0.1272499       -16.95097        -54.70892        70.39008             -200               0             -200               0
1.42244               -0.1312945       -17.10176        -54.54428         66.6487             -200               0             -200               0
1.42904                -0.135414        -17.2542        -54.39471        63.01601             -200               0             -200               0
1.43564                -0.139612        -17.4084         -54.2583        59.50116             -200               0             -200               0
1.44224               -0.1438957       -17.56442        -54.13299        56.11281             -200               0             -200               0
1.44884               -0.1482754       -17.72237        -54.01649        52.85895             -200               0             -200               0
1.45545               -0.1527607        -17.8823        -53.90627        49.74652             -200               0             -200               0
1.46205               -0.1573638       -18.04429        -53.79956        46.78101             -200               0             -200               0
1.46865               -0.1620956        -18.2084        -53.69336        43.96601             -200               0             -200               0
1.47525               -0.1669709       -18.37468        -53.58443        41.30262             -200               0             -200               0
1.48185               -0.1720055       -18.54317        -53.46937        38.78892             -200               0             -200               0
1.48845               -0.1772109       -18.71389        -53.34467        36.41943             -200               0             -200               0
1.49505               -0.1826057       -18.88687        -53.20685        34.18469             -200               0             -200               0
1.50165               -0.1882016       -19.06211        -53.05259        32.07099             -200               0             -200               0
1.50825               -0.1940121       -19.23959        -52.87888        30.06043             -200               0             -200               0
1.51485               -0.2000523       -19.41932        -52.68317        28.13125             -200               0             -200               0
1.52145               -0.2063338       -19.60126        -52.46358        26.25852             -200               0             -200               0
1.52805               -0.2128655       -19.78538        -52.21894         24.4152             -200               0             -200               0
1.53465               -0.2196564       -19.97164        -51.94893        22.57334             -200               0             -200               0
1.54125               -0.2267139       -20.16001        -51.65405        20.70553             -200               0             -200               0
1.54785               -0.2340439       -20.35045        -51.33557         18.7861             -200               0             -200               0
1.55446               -0.2416487       -20.54291        -50.99543         16.7923             -200               0             -200               0
1.56106               -0.2495304       -20.73735        -50.63608        14.70505             -200               0             -200               0
1.56766               -0.2576864       -20.93376        -50.26031         12.5094             -200               0             -200               0
1.57426               -0.2661159        -21.1321        -49.87112        10.19464             -200               0             -200               0
1.58086               -0.2748132       -21.33237         -49.4715         7.75408             -200               0             -200               0
1.58746               -0.2837752       -21.53456         -49.0644        5.184715             -200               0             -200               0
1.59406               -0.2929943       -21.73871        -48.65256        2.486659             -200               0             -200               0
1.60066               -0.3024636       -21.94483        -48.23849      -0.3374063             -200               0             -200               0
1.60726               -0.3121764       -22.15299        -47.82444       -3.282797             -200               0             -200               0
1.61386               -0.3221251       -22.36324        -47.41235        -6.34335             -200               0             -200               0
1.62046               -0.3323035        -22.5757        -47.00389       -9.511867             -200               0             -200               0
1.62706                -0.342706       -22.79045        -46.60046        -12.7805             -200               0             -200               0
1.63366               -0.3533296       -23.00763        -46.20322       -16.14104             -200               0             -200               0
1.64026               -0.3641713       -23.22737        -45.81308       -19.58517             -200               0             -200               0
1.64686               -0.3752333       -23.44984        -45.43077        -23.1046             -200               0             -200               0
1.65347               -0.3865187       -23.67521        -45.05685       -26.69125             -200               0             -200               0
1.66007               -0.3980326       -23.90365         -44.6917       -30.33729             -200               0             -200               0
1.66667               -0.4097859       -24.13536         -44.3356        -34.0352             -200               0             -200               0
1.67327               -0.4217927       -24.37053         -43.9887       -37.77784             -200               0             -200               0
1.67987                -0.434069       -24.60936        -43.65105       -41.55842             -200               0             -200               0
1.68647               -0.4466362       -24.85205         -43.3226       -45.37054             -200               0             -200               0
1.69307               -0.4595198       -25.09877        -43.00326       -49.20816             -200               0             -200               0
1.69967               -0.4727461       -25.34973        -42.69284       -53.06562             -200               0             -200               0
1.70627               -0.4863507       -25.60507        -42.39112       -56.93763             -200               0             -200               0
1.71287                -0.500364       -25.86496         -42.0978       -60.81922             -200               0             -200               0
1.71947               -0.5148279       -26.12953        -41.81256        -64.7058             -200               0             -200               0
1.72607               -0.5297806        -26.3989        -41.53502       -68.59308             -200               0             -200               0
1.73267               -0.5452643       -26.67317        -41.26477       -72.47713             -200               0             -200               0
1.73927               -0.5613225        -26.9524        -41.00136       -76.35435             -200               0             -200               0
1.74587                   -0.578       -27.23665        -40.74431       -80.22146             -200               0             -200               0
1.75248               -0.5953414       -27.52592        -40.49311       -84.07553             -200               0             -200               0
1.75908                -0.613391       -27.82024        -40.24722       -87.91396             -200               0             -200               0
1.76568               -0.6321919       -28.11957        -40.00607       -91.73455             -200               0             -200               0
1.77228               -0.6517868       -28.42387        -39.76908       -95.53542             -200               0             -200               0
1.77888               -0.6722147       -28.73307        -39.53564       -99.31511             -200               0             -200               0
1.78548               -0.6935152        -29.0471        -39.30513       -103.0725             -200               0             -200               0
1.79208               -0.7157226       -29.36588        -39.07692        -106.807             -200               0             -200               0
1.79868               -0.7388689       -29.68929        -38.85038       -110.5184             -200               0             -200               0
1.80528               -0.7629828       -30.01723        -38.62487       -114.2068             -200               0             -200               0
1.81188               -0.7880917       -30.34962        -38.39975       -117.8729             -200               0             -200               0
1.81848               -0.8142164       -30.68634        -38.17443       -121.5179             -200               0             -200               0
1.82508               -0.8413774       -31.02731        -37.94832       -125.1431             -200               0             -200               0
1.83168               -0.8695902       -31.37245        -37.72084       -128.7507             -200               0             -200               0
1.83828               -0.8988694       -31.72172         -37.4915        -132.343             -200               0             -200               0
1.84488               -0.9292257       -32.07507         -37.2598       -135.9228             -200               0             -200               0
1.85149               -0.9606709       -32.43251        -37.02533       -139.4932             -200               0             -200               0
1.85809               -0.9932137       -32.79406        -36.78774       -143.0575             -200               0             -200               0
1.86469                -1.026864       -33.15979        -36.54673       -146.6195             -200               0             -200               0
1.87129                -1.061632       -33.52978        -36.30207        -150.183             -200               0             -200               0
1.87789                 -1.09753       -33.90418        -36.05363       -153.7519             -200               0             -200               0
1.88449                -1.134573       -34.28316        -35.80132       -157.3304             -200               0             -200               0
1.89109                 -1.17278       -34.66691        -35.54515       -160.9223             -200               0             -200               0
1.89769                -1.212174       -35.05571        -35.28519       -164.5316             -200               0             -200               0
1.90429                -1.252785       -35.44981        -35.02157       -168.1621             -200               0             -200               0
1.91089                -1.294651       -35.84953        -34.75452       -171.8175             -200               0             -200               0
1.91749                -1.337815       -36.25522        -34.48429        -175.501             -200               0             -200               0
1.92409                -1.382331       -36.66723        -34.21118       -179.2157             -200               0             -200               0
1.93069                -1.428262       -37.08594        -33.93558        177.0355             -200               0             -200               0
1.93729                -1.475681       -37.51175        -33.65785        173.2504             -200               0             -200               0
1.94389                -1.524674       -37.94503        -33.37843        169.4268             -200               0             -200               0
1.9505                 -1.575335       -38.38618        -33.09775         165.563             -200               0             -200               0
1.9571                 -1.627774       -38.83557        -32.81626        161.6577             -200               0             -200               0
1.9637                 -1.682111       -39.29355        -32.53442        157.7098             -200               0             -200               0
1.9703                 -1.738477       -39.76044        -32.25267        153.7186             -200               0             -200               0
1.9769                 -1.797017       -40.23653        -31.97148        149.6837             -200               0             -200               0
1.9835                 -1.857887       -40.72205        -31.69126         145.605             -200               0             -200               0
1.9901                 -1.921256        -41.2172        -31.41245        141.4826             -200               0             -200               0
1.9967                 -1.987302       -41.72209        -31.13544        137.3169             -200               0             -200               0
2.0033                 -2.056216       -42.23676        -30.86062        133.1085             -200               0             -200               0
2.0099                 -2.128197        -42.7612        -30.58836         128.858             -200               0             -200               0
2.0165                 -2.203455       -43.29531        -30.31898        124.5664             -200               0             -200               0
2.0231                 -2.282207        -43.8389         -30.0528        120.2347             -200               0             -200               0
2.0297                 -2.364679       -44.39166        -29.79013         115.864             -200               0             -200               0
2.0363                 -2.451104       -44.95323        -29.53122        111.4555             -200               0             -200               0
2.0429                  -2.54172       -45.52313        -29.27632        107.0104             -200               0             -200               0
2.0495                 -2.636775       -46.10076        -29.02566        102.5302             -200               0             -200               0
2.05611                -2.736515       -46.68545        -28.77944        98.01604             -200               0             -200               0
2.06271                -2.841196       -47.27639        -28.53785        93.46942             -200               0             -200               0
2.06931                -2.951077       -47.87266        -28.30105         88.8917             -200               0             -200               0
2.07591                -3.066417       -48.47326        -28.06919        84.28428             -200               0             -200               0
2.08251                -3.187481       -49.07705        -27.84241        79.64854             -200               0             -200               0
2.08911                -3.314537       -49.68278        -27.62082        74.98585             -200               0             -200               0
2.09571                -3.447854       -50.28908        -27.40452        70.29758             -200               0             -200               0
2.10231                -3.587704       -50.89446        -27.19361        65.58506             -200               0             -200               0
2.10891                -3.734363        -51.4973        -26.98817        60.84961             -200               0             -200               0
2.11551                -3.888109       -52.09586        -26.78827        56.09252             -200               0             -200               0
2.12211                -4.049222       -52.68825        -26.59395        51.31505             -200               0             -200               0
2.12871                -4.217987       -53.27245        -26.40529        46.51842             -200               0             -200               0
2.13531                -4.394695        -53.8463        -26.22231        41.70384             -200               0             -200               0
2.14191                -4.579638       -54.40744        -26.04505        36.87248             -200               0             -200               0
2.14851                -4.773118       -54.95337        -25.87354        32.02549             -200               0             -200               0
2.15512                -4.975441       -55.48138        -25.70781        27.16396             -200               0             -200               0
2.16172                -5.186921       -55.98856        -25.54787        22.28898             -200               0             -200               0
2.16832                -5.407882       -56.47173        -25.39373        17.40161             -200               0             -200               0
2.17492                -5.638656       -56.92751        -25.24541        12.50286             -200               0             -200               0
2.18152                -5.879586       -57.35216        -25.10291        7.593732             -200               0             -200               0
2.18812                -6.131026       -57.74164        -24.96622        2.675199             -200               0             -200               0
2.19472                -6.393341       -58.09148        -24.83536       -2.251791             -200               0             -200               0
2.20132                -6.666907       -58.39681        -24.71031       -7.186317             -200               0             -200               0
2.20792                -6.952114       -58.65221        -24.59107       -12.12747             -200               0             -200               0
2.21452                -7.249357       -58.85169        -24.47764       -17.07437             -200               0             -200               0
2.22112                 -7.55904       -58.98853        -24.36999       -22.02616             -200               0             -200               0
2.22772                -7.881565        -59.0552        -24.26812       -26.98199             -200               0             -200               0
2.23432                -8.217332       -59.04326        -24.17202       -31.94102             -200               0             -200               0
2.24092                -8.566721       -58.94312        -24.08167       -36.90245             -200               0             -200               0
2.24752                -8.930079       -58.74391        -23.99705       -41.86546             -200               0             -200               0
2.25413                -9.307695       -58.43323        -23.91816       -46.82928             -200               0             -200               0
2.26073                -9.699768       -57.99693        -23.84496       -51.79311             -200               0             -200               0
2.26733                -10.10636       -57.41882        -23.77745       -56.75619             -200               0             -200               0
2.27393                -10.52733       -56.68041         -23.7156       -61.71776             -200               0             -200               0
2.28053                -10.96227       -55.76055        -23.65939       -66.67707             -200               0             -200               0
2.28713                -11.41033        -54.6352        -23.60879       -71.63335             -200               0             -200               0
2.29373                -11.87014        -53.2773         -23.5638       -76.58588             -200               0             -200               0