! TOUCHSTONE file generated by CST MICROWAVE STUDIO
! Date and time: Sat Mar  8 13:55:36 2025
! Project name: non_fractured.cst
! Parameters = {B=2.5; D=160; F=20; Feed=2.85625; L=100; M=20; R=0.384908; S=2.5; Theta=90; length=57.125; wave=114.25}
! Header version: 2024
! Port assignment regex: !\s*Touchstone port\s*([0-9]+)\s*=\s*(CST MWS port|CST DES external port|CST DES block port)\s*(.+)\s* \(\"(.*)\"\)(\s*mode\s*([0-9]+))?.*
! Touchstone port assignment:
! Touchstone port 1 = CST MWS port 1 ("")
! Touchstone port 2 = CST MWS port 2 ("")
# GHz S DB R 50
1                    -0.01933541       -9.760585        -67.68723       -160.6079             -200               0             -200               0
1.00658              -0.02014527       -9.848425        -67.56364       -164.7557             -200               0             -200               0
1.01316              -0.02098865       -9.936674        -67.45977       -168.7975             -200               0             -200               0
1.01974              -0.02186074       -10.02533        -67.37443        -172.723             -200               0             -200               0
1.02632              -0.02275965       -10.11438        -67.30633       -176.5212             -200               0             -200               0
1.03289              -0.02367713       -10.20384        -67.25395         179.819             -200               0             -200               0
1.03947              -0.02461255       -10.29373        -67.21556        176.3094             -200               0             -200               0
1.04605              -0.02555994       -10.38405        -67.18912        172.9619             -200               0             -200               0
1.05263              -0.02651517       -10.47484        -67.17222        169.7881             -200               0             -200               0
1.05921              -0.02747611       -10.56611        -67.16206         166.799             -200               0             -200               0
1.06579              -0.02843778       -10.65791        -67.15539        164.0044             -200               0             -200               0
1.07237              -0.02939935       -10.75026        -67.14846        161.4118             -200               0             -200               0
1.07895               -0.0303587       -10.84321        -67.13705        159.0258             -200               0             -200               0
1.08553              -0.03131477        -10.9368         -67.1165        156.8467             -200               0             -200               0
1.09211              -0.03226731       -11.03107        -67.08186        154.8692             -200               0             -200               0
1.09868              -0.03321941       -11.12607        -67.02801        153.0817             -200               0             -200               0
1.10526              -0.03417074       -11.22184        -66.94996        151.4654             -200               0             -200               0
1.11184               -0.0351243       -11.31841        -66.84313        149.9938             -200               0             -200               0
1.11842               -0.0360841       -11.41584        -66.70371        148.6337             -200               0             -200               0
1.125                 -0.0370542       -11.51416          -66.529        147.3459             -200               0             -200               0
1.13158              -0.03803982        -11.6134        -66.31759        146.0877             -200               0             -200               0
1.13816              -0.03904587       -11.71358        -66.06957        144.8156             -200               0             -200               0
1.14474              -0.04007782       -11.81474        -65.78644        143.4876             -200               0             -200               0
1.15132              -0.04114339       -11.91688          -65.471        142.0662             -200               0             -200               0
1.15789              -0.04224691       -12.02002        -65.12703        140.5199             -200               0             -200               0
1.16447              -0.04339492       -12.12416        -64.75897        138.8248             -200               0             -200               0
1.17105              -0.04459409        -12.2293         -64.3716        136.9641             -200               0             -200               0
1.17763              -0.04584976       -12.33544        -63.96971        134.9285             -200               0             -200               0
1.18421              -0.04716591       -12.44257        -63.55791        132.7147             -200               0             -200               0
1.19079              -0.04854806       -12.55068        -63.14039        130.3246             -200               0             -200               0
1.19737              -0.05000112       -12.65973        -62.72092        127.7641             -200               0             -200               0
1.20395              -0.05152608       -12.76972        -62.30273         125.042             -200               0             -200               0
1.21053              -0.05312424       -12.88063        -61.88859        122.1688             -200               0             -200               0
1.21711              -0.05480053       -12.99242        -61.48076        119.1564             -200               0             -200               0
1.22368              -0.05655201       -13.10507         -61.0811        116.0172             -200               0             -200               0
1.23026              -0.05837887       -13.21857        -60.69109        112.7634             -200               0             -200               0
1.23684              -0.06028008        -13.3329        -60.31188        109.4075             -200               0             -200               0
1.24342              -0.06225257       -13.44803        -59.94435        105.9613             -200               0             -200               0
1.25                 -0.06429343       -13.56397        -59.58917        102.4361             -200               0             -200               0
1.25658              -0.06639973       -13.68069        -59.24679        98.84265             -200               0             -200               0
1.26316              -0.06856662       -13.79821        -58.91752        95.19126             -200               0             -200               0
1.26974              -0.07078909       -13.91653        -58.60154        91.49152             -200               0             -200               0
1.27632              -0.07306436       -14.03566        -58.29892        87.75251             -200               0             -200               0
1.28289              -0.07538587       -14.15562        -58.00964         83.9828             -200               0             -200               0
1.28947              -0.07774972       -14.27644         -57.7336        80.19051             -200               0             -200               0
1.29605              -0.08015081       -14.39815        -57.47064        76.38334             -200               0             -200               0
1.30263              -0.08258747       -14.52078        -57.22055        72.56861             -200               0             -200               0
1.30921              -0.08505559        -14.6444        -56.98305        68.75332             -200               0             -200               0
1.31579              -0.08755234       -14.76903        -56.75781        64.94417             -200               0             -200               0
1.32237              -0.09007616       -14.89475        -56.54448        61.14763             -200               0             -200               0
1.32895              -0.09262579        -15.0216        -56.34263         57.3699             -200               0             -200               0
1.33553              -0.09520187       -15.14964         -56.1518        53.61699             -200               0             -200               0
1.34211              -0.09780692       -15.27894        -55.97146        49.89473             -200               0             -200               0
1.34868               -0.1004416       -15.40956        -55.80105        46.20872             -200               0             -200               0
1.35526               -0.1031104       -15.54156        -55.63993        42.56438             -200               0             -200               0
1.36184               -0.1058161       -15.67499        -55.48741        38.96688             -200               0             -200               0
1.36842               -0.1085649       -15.80991        -55.34273        35.42117             -200               0             -200               0
1.375                  -0.111363       -15.94637        -55.20504        31.93189             -200               0             -200               0
1.38158               -0.1142165       -16.08442        -55.07344        28.50332             -200               0             -200               0
1.38816               -0.1171311        -16.2241        -54.94693        25.13934             -200               0             -200               0
1.39474               -0.1201158       -16.36545        -54.82444        21.84329             -200               0             -200               0
1.40132                -0.123176        -16.5085        -54.70483        18.61795             -200               0             -200               0
1.40789               -0.1263204       -16.65327        -54.58687        15.46536             -200               0             -200               0
1.41447               -0.1295566       -16.79979        -54.46927        12.38674             -200               0             -200               0
1.42105               -0.1328895       -16.94807        -54.35068        9.382391             -200               0             -200               0
1.42763               -0.1363278       -17.09812        -54.22973        6.451533             -200               0             -200               0
1.43421               -0.1398752       -17.24996        -54.10501         3.59225             -200               0             -200               0
1.44079               -0.1435383       -17.40358        -53.97513       0.8013896             -200               0             -200               0
1.44737               -0.1473196       -17.55899        -53.83874       -1.925474             -200               0             -200               0
1.45395               -0.1512247       -17.71619        -53.69458       -4.594053             -200               0             -200               0
1.46053               -0.1552539       -17.87521        -53.54147       -7.211289             -200               0             -200               0
1.46711               -0.1594101       -18.03602        -53.37841       -9.785264             -200               0             -200               0
1.47368                -0.163693       -18.19866        -53.20455       -12.32503             -200               0             -200               0
1.48026               -0.1681027       -18.36314        -53.01927        -14.8404             -200               0             -200               0
1.48684               -0.1726394       -18.52947        -52.82218       -17.34172             -200               0             -200               0
1.49342               -0.1773011       -18.69769        -52.61312       -19.83952             -200               0             -200               0
1.5                   -0.1820857       -18.86784        -52.39218       -22.34428             -200               0             -200               0
1.50658               -0.1869927       -19.03997        -52.15969       -24.86611             -200               0             -200               0
1.51316               -0.1920187       -19.21411        -51.91618       -27.41446             -200               0             -200               0
1.51974               -0.1971636       -19.39035        -51.66239       -29.99793             -200               0             -200               0
1.52632               -0.2024263       -19.56876        -51.39921       -32.62407             -200               0             -200               0
1.53289               -0.2078059       -19.74942        -51.12766       -35.29923             -200               0             -200               0
1.53947               -0.2133031       -19.93242        -50.84883       -38.02856             -200               0             -200               0
1.54605               -0.2189204       -20.11786        -50.56388       -40.81592             -200               0             -200               0
1.55263               -0.2246593       -20.30587        -50.27397       -43.66398             -200               0             -200               0
1.55921                -0.230527       -20.49653        -49.98026       -46.57423             -200               0             -200               0
1.56579                -0.236529       -20.68999        -49.68386       -49.54714             -200               0             -200               0
1.57237               -0.2426742       -20.88637        -49.38583       -52.58223             -200               0             -200               0
1.57895               -0.2489707       -21.08578        -49.08715       -55.67822             -200               0             -200               0
1.58553               -0.2554333       -21.28836        -48.78874       -58.83313             -200               0             -200               0
1.59211               -0.2620738       -21.49423        -48.49141       -62.04441             -200               0             -200               0
1.59868                 -0.26891       -21.70351        -48.19588       -65.30909             -200               0             -200               0
1.60526                -0.275959       -21.91633        -47.90279       -68.62384             -200               0             -200               0
1.61184               -0.2832415       -22.13279        -47.61269       -71.98506             -200               0             -200               0
1.61842               -0.2907772         -22.353        -47.32602       -75.38901             -200               0             -200               0
1.625                 -0.2985905       -22.57706        -47.04316       -78.83182             -200               0             -200               0
1.63158               -0.3067027       -22.80505         -46.7644       -82.30959             -200               0             -200               0
1.63816               -0.3151414       -23.03705        -46.48997       -85.81842             -200               0             -200               0
1.64474               -0.3239305       -23.27313           -46.22       -89.35445             -200               0             -200               0
1.65132               -0.3330969       -23.51334        -45.95459       -92.91394             -200               0             -200               0
1.65789               -0.3426666       -23.75773        -45.69376       -96.49321             -200               0             -200               0
1.66447               -0.3526654       -24.00632        -45.43747       -100.0887             -200               0             -200               0
1.67105               -0.3631197       -24.25915        -45.18565       -103.6972             -200               0             -200               0
1.67763               -0.3740549       -24.51624        -44.93817       -107.3154             -200               0             -200               0
1.68421               -0.3854952       -24.77758        -44.69484       -110.9403             -200               0             -200               0
1.69079               -0.3974649       -25.04319        -44.45545       -114.5692             -200               0             -200               0
1.69737               -0.4099854       -25.31306        -44.21976       -118.1995             -200               0             -200               0
1.70395               -0.4230799       -25.58719        -43.98747       -121.8289             -200               0             -200               0
1.71053               -0.4367696       -25.86558        -43.75827       -125.4553             -200               0             -200               0
1.71711               -0.4510724       -26.14821        -43.53182        -129.077             -200               0             -200               0
1.72368               -0.4660064       -26.43511        -43.30774       -132.6925             -200               0             -200               0
1.73026               -0.4815907       -26.72627        -43.08566       -136.3004             -200               0             -200               0
1.73684               -0.4978413        -27.0217        -42.86518          -139.9             -200               0             -200               0
1.74342               -0.5147737       -27.32144        -42.64587       -143.4906             -200               0             -200               0
1.75                  -0.5324042       -27.62552        -42.42733       -147.0718             -200               0             -200               0
1.75658               -0.5507485       -27.93398        -42.20913       -150.6439             -200               0             -200               0
1.76316               -0.5698243       -28.24689        -41.99087        -154.207             -200               0             -200               0
1.76974                -0.589646       -28.56433        -41.77212       -157.7619             -200               0             -200               0
1.77632               -0.6102335       -28.88637        -41.55252       -161.3097             -200               0             -200               0
1.78289               -0.6316067       -29.21315        -41.33167       -164.8515             -200               0             -200               0
1.78947               -0.6537858       -29.54475        -41.10924       -168.3891             -200               0             -200               0
1.79605               -0.6767953       -29.88134        -40.88492       -171.9242             -200               0             -200               0
1.80263               -0.7006637       -30.22304        -40.65842        -175.459             -200               0             -200               0
1.80921               -0.7254198       -30.57002        -40.42952       -178.9958             -200               0             -200               0
1.81579               -0.7510978       -30.92245        -40.19801        177.4628             -200               0             -200               0
1.82237               -0.7777349        -31.2805        -39.96375        173.9144             -200               0             -200               0
1.82895               -0.8053736       -31.64435        -39.72663        170.3561             -200               0             -200               0
1.83553               -0.8340611       -32.01418        -39.48662        166.7851             -200               0             -200               0
1.84211               -0.8638483       -32.39017        -39.24372        163.1987             -200               0             -200               0
1.84868               -0.8947913       -32.77251        -38.99796        159.5941             -200               0             -200               0
1.85526               -0.9269509       -33.16135        -38.74946        155.9686             -200               0             -200               0
1.86184               -0.9603947       -33.55685        -38.49835        152.3196             -200               0             -200               0
1.86842               -0.9951941       -33.95917        -38.24481        148.6447             -200               0             -200               0
1.875                  -1.031425       -34.36842        -37.98907        144.9416             -200               0             -200               0
1.88158                -1.069168       -34.78473        -37.73138        141.2082             -200               0             -200               0
1.88816                -1.108509       -35.20817        -37.47201        137.4426             -200               0             -200               0
1.89474                -1.149542        -35.6388        -37.21128        133.6433             -200               0             -200               0
1.90132                -1.192358       -36.07665         -36.9495        129.8087             -200               0             -200               0
1.90789                -1.237057       -36.52172        -36.68701        125.9378             -200               0             -200               0
1.91447                -1.283741       -36.97399        -36.42414        122.0297             -200               0             -200               0
1.92105                -1.332518       -37.43338        -36.16125        118.0835             -200               0             -200               0
1.92763                -1.383493       -37.89978        -35.89869        114.0988             -200               0             -200               0
1.93421                 -1.43678       -38.37307        -35.63679        110.0754             -200               0             -200               0
1.94079                -1.492493       -38.85308        -35.37589        106.0131             -200               0             -200               0
1.94737                -1.550748       -39.33957        -35.11633        101.9122             -200               0             -200               0
1.95395                -1.611662        -39.8323        -34.85841        97.77273             -200               0             -200               0
1.96053                -1.675354       -40.33099        -34.60244        93.59526             -200               0             -200               0
1.96711                -1.741945       -40.83529        -34.34872        89.38031             -200               0             -200               0
1.97368                -1.811558       -41.34486        -34.09751        85.12855             -200               0             -200               0
1.98026                -1.884316       -41.85927        -33.84908        80.84074             -200               0             -200               0
1.98684                -1.960342       -42.37809        -33.60367        76.51775             -200               0             -200               0
1.99342                -2.039762       -42.90085         -33.3615        72.16051             -200               0             -200               0
2                      -2.122701       -43.42703        -33.12279        67.77001             -200               0             -200               0
2.00658                -2.209288       -43.95609        -32.88773        63.34728             -200               0             -200               0
2.01316                 -2.29965       -44.48743         -32.6565        58.89341             -200               0             -200               0
2.01974                -2.393916       -45.02045        -32.42927         54.4095             -200               0             -200               0
2.02632                 -2.49222       -45.55448        -32.20618        49.89668             -200               0             -200               0
2.03289                -2.594696       -46.08883        -31.98738        45.35609             -200               0             -200               0
2.03947                -2.701479       -46.62276        -31.77298        40.78887             -200               0             -200               0
2.04605                -2.812706       -47.15549        -31.56311        36.19619             -200               0             -200               0
2.05263                -2.928524       -47.68621        -31.35786        31.57916             -200               0             -200               0
2.05921                -3.049075       -48.21406        -31.15732        26.93895             -200               0             -200               0
2.06579                -3.174509       -48.73812        -30.96158        22.27666             -200               0             -200               0
2.07237                -3.304984       -49.25741        -30.77071        17.59342             -200               0             -200               0
2.07895                -3.440658       -49.77092        -30.58476        12.89033             -200               0             -200               0
2.08553                -3.581699       -50.27752         -30.4038        8.168448             -200               0             -200               0
2.09211                -3.728277       -50.77606        -30.22788        3.428855             -200               0             -200               0
2.09868                -3.880574       -51.26526        -30.05704       -1.327409             -200               0             -200               0
2.10526                -4.038776       -51.74378         -29.8913       -6.099325             -200               0             -200               0
2.11184                -4.203077       -52.21016        -29.73071       -10.88589             -200               0             -200               0
2.11842                -4.373683       -52.66281        -29.57529       -15.68612             -200               0             -200               0
2.125                  -4.550803       -53.10001        -29.42506       -20.49905             -200               0             -200               0
2.13158                -4.734661        -53.5199        -29.28004       -25.32374             -200               0             -200               0
2.13816                -4.925485       -53.92043        -29.14023       -30.15926             -200               0             -200               0
2.14474                -5.123516       -54.29938        -29.00566       -35.00471             -200               0             -200               0
2.15132                   -5.329       -54.65427        -28.87631        -39.8592             -200               0             -200               0
2.15789                -5.542195       -54.98242         -28.7522       -44.72186             -200               0             -200               0
2.16447                -5.763362       -55.28084        -28.63333       -49.59184             -200               0             -200               0
2.17105                -5.992774       -55.54623        -28.51969        -54.4683             -200               0             -200               0
2.17763                -6.230701       -55.77495        -28.41127       -59.35041             -200               0             -200               0
2.18421                 -6.47742       -55.96293        -28.30808       -64.23735             -200               0             -200               0
2.19079                -6.733203       -56.10567        -28.21009       -69.12835             -200               0             -200               0
2.19737                -6.998316       -56.19817        -28.11731        -74.0226             -200               0             -200               0
2.20395                -7.273013       -56.23483        -28.02971       -78.91933             -200               0             -200               0
2.21053                -7.557526       -56.20942        -27.94728       -83.81778             -200               0             -200               0
2.21711                -7.852055       -56.11499        -27.87001       -88.71719             -200               0             -200               0
2.22368                -8.156754       -55.94376        -27.79787       -93.61681             -200               0             -200               0
2.23026                -8.471718       -55.68708        -27.73085       -98.51591             -200               0             -200               0
2.23684                -8.796953       -55.33528        -27.66892       -103.4137             -200               0             -200               0
2.24342                -9.132356       -54.87762        -27.61206       -108.3096             -200               0             -200               0
2.25                   -9.477668       -54.30214        -27.56025       -113.2027             -200               0             -200               0
2.25658                 -9.83244        -53.5957        -27.51346       -118.0924             -200               0             -200               0
2.26316                -10.19597       -52.74382        -27.47166       -122.9779             -200               0             -200               0
2.26974                -10.56724       -51.73079        -27.43482       -127.8586             -200               0             -200               0
2.27632                -10.94483       -50.53973        -27.40291       -132.7337             -200               0             -200               0
2.28289                 -11.3268       -49.15289         -27.3759       -137.6025             -200               0             -200               0
2.28947                -11.71064       -47.55208        -27.35375       -142.4644             -200               0             -200               0