! TOUCHSTONE file generated by CST MICROWAVE STUDIO
! Date and time: Sat Mar  8 13:55:20 2025
! Project name: non_fractured.cst
! Parameters = {B=2.5; D=160; F=15; Feed=2.85625; L=100; M=20; R=0.384908; S=1; Theta=0; length=57.125; wave=114.25}
! Header version: 2024
! Port assignment regex: !\s*Touchstone port\s*([0-9]+)\s*=\s*(CST MWS port|CST DES external port|CST DES block port)\s*(.+)\s* \(\"(.*)\"\)(\s*mode\s*([0-9]+))?.*
! Touchstone port assignment:
! Touchstone port 1 = CST MWS port 1 ("")
! Touchstone port 2 = CST MWS port 2 ("")
# GHz S DB R 50
1                    -0.01750076       -9.768777        -68.10158       -138.4764             -200               0             -200               0
1.00658              -0.01849723       -9.858313        -67.87396        -143.121             -200               0             -200               0
1.01316              -0.01956794       -9.947988        -67.67657       -147.6866             -200               0             -200               0
1.01974              -0.02070163       -10.03775        -67.50833       -152.1629             -200               0             -200               0
1.02632              -0.02188606       -10.12757        -67.36826       -156.5383             -200               0             -200               0
1.03289              -0.02310658       -10.21742        -67.25535       -160.8004             -200               0             -200               0
1.03947              -0.02435006        -10.3073        -67.16857       -164.9355             -200               0             -200               0
1.04605               -0.0255994       -10.39722        -67.10677       -168.9284             -200               0             -200               0
1.05263              -0.02684258       -10.48721         -67.0686       -172.7627             -200               0             -200               0
1.05921              -0.02806552       -10.57732        -67.05246         -176.42             -200               0             -200               0
1.06579              -0.02925476       -10.66762        -67.05636       -179.8808             -200               0             -200               0
1.07237                  -0.0304       -10.75817         -67.0778        176.8759             -200               0             -200               0
1.07895              -0.03149153       -10.84907        -67.11363        173.8719             -200               0             -200               0
1.08553              -0.03252243       -10.94041        -67.15988        171.1293             -200               0             -200               0
1.09211              -0.03348861       -11.03231        -67.21164        168.6687             -200               0             -200               0
1.09868              -0.03438626       -11.12488        -67.26286        166.5082             -200               0             -200               0
1.10526              -0.03521667       -11.21823        -67.30633        164.6602             -200               0             -200               0
1.11184              -0.03598311       -11.31247        -67.33372        163.1289             -200               0             -200               0
1.11842               -0.0366905       -11.40773        -67.33581        161.9067             -200               0             -200               0
1.125                -0.03734803       -11.50409          -67.303        160.9706             -200               0             -200               0
1.13158              -0.03796618       -11.60167        -67.22599        160.2807             -200               0             -200               0
1.13816              -0.03855675       -11.70053        -67.09681        159.7794             -200               0             -200               0
1.14474              -0.03913451       -11.80076        -66.90974        159.3942             -200               0             -200               0
1.15132              -0.03971466       -11.90241        -66.66211        159.0433             -200               0             -200               0
1.15789              -0.04031509       -12.00551        -66.35472        158.6433             -200               0             -200               0
1.16447              -0.04095036        -12.1101        -65.99165        158.1165             -200               0             -200               0
1.17105              -0.04164001       -12.21617        -65.57963        157.3986             -200               0             -200               0
1.17763              -0.04239983       -12.32371        -65.12714        156.4417             -200               0             -200               0
1.18421               -0.0432457       -12.43269        -64.64338        155.2157             -200               0             -200               0
1.19079              -0.04419192       -12.54307        -64.13744        153.7067             -200               0             -200               0
1.19737              -0.04525228       -12.65478        -63.61768        151.9144             -200               0             -200               0
1.20395              -0.04643796       -12.76775        -63.09142        149.8485             -200               0             -200               0
1.21053              -0.04775677       -12.88191        -62.56478        147.5252             -200               0             -200               0
1.21711              -0.04921586       -12.99715         -62.0427        144.9648             -200               0             -200               0
1.22368              -0.05081715       -13.11341        -61.52906        142.1895             -200               0             -200               0
1.23026              -0.05256348       -13.23056        -61.02682         139.222             -200               0             -200               0
1.23684              -0.05445175       -13.34854        -60.53817        136.0843             -200               0             -200               0
1.24342               -0.0564776       -13.46725        -60.06469        132.7975             -200               0             -200               0
1.25                 -0.05863569        -13.5866        -59.60746         129.381             -200               0             -200               0
1.25658              -0.06091363       -13.70655        -59.16719         125.853             -200               0             -200               0
1.26316              -0.06330199       -13.82703        -58.74427        122.2301             -200               0             -200               0
1.26974              -0.06578803         -13.948        -58.33888        118.5272             -200               0             -200               0
1.27632              -0.06835739       -14.06944        -57.95103        114.7584             -200               0             -200               0
1.28289              -0.07099599       -14.19135        -57.58058        110.9361             -200               0             -200               0
1.28947              -0.07368688       -14.31374        -57.22728         107.072             -200               0             -200               0
1.29605              -0.07641539       -14.43665        -56.89083        103.1767             -200               0             -200               0
1.30263              -0.07916897       -14.56014        -56.57085        99.26013             -200               0             -200               0
1.30921              -0.08193195       -14.68426         -56.2669        95.33141             -200               0             -200               0
1.31579              -0.08469362       -14.80912         -55.9785        91.39916             -200               0             -200               0
1.32237              -0.08744491       -14.93482        -55.70513        87.47146             -200               0             -200               0
1.32895              -0.09017863       -15.06147        -55.44623        83.55595             -200               0             -200               0
1.33553              -0.09288953       -15.18919         -55.2012        79.65993             -200               0             -200               0
1.34211              -0.09557477       -15.31811         -54.9694        75.79032             -200               0             -200               0
1.34868              -0.09823596       -15.44838        -54.75013        71.95377             -200               0             -200               0
1.35526               -0.1008783       -15.58013        -54.54264        68.15662             -200               0             -200               0
1.36184               -0.1035064       -15.71349        -54.34613        64.40494             -200               0             -200               0
1.36842               -0.1061312       -15.84859        -54.15975        60.70448             -200               0             -200               0
1.375                 -0.1087661       -15.98555        -53.98254        57.06067             -200               0             -200               0
1.38158               -0.1114248       -16.12447        -53.81349        53.47857             -200               0             -200               0
1.38816               -0.1141247       -16.26544        -53.65152        49.96276             -200               0             -200               0
1.39474                -0.116884       -16.40854        -53.49544        46.51734             -200               0             -200               0
1.40132               -0.1197235       -16.55383          -53.344        43.14574             -200               0             -200               0
1.40789               -0.1226606       -16.70134        -53.19586        39.85068             -200               0             -200               0
1.41447               -0.1257187       -16.85109        -53.04958        36.63398             -200               0             -200               0
1.42105               -0.1289182       -17.00308        -52.90369         33.4965             -200               0             -200               0
1.42763                -0.132276       -17.15729        -52.75666        30.43793             -200               0             -200               0
1.43421                -0.135811       -17.31369        -52.60692        27.45672             -200               0             -200               0
1.44079               -0.1395388       -17.47222        -52.45291        24.54995             -200               0             -200               0
1.44737               -0.1434748       -17.63281        -52.29311        21.71327             -200               0             -200               0
1.45395               -0.1476304        -17.7954        -52.12607        18.94089             -200               0             -200               0
1.46053               -0.1520117       -17.95989        -51.95043        16.22559             -200               0             -200               0
1.46711               -0.1566274       -18.12621        -51.76504        13.55881             -200               0             -200               0
1.47368               -0.1614775       -18.29426        -51.56889        10.93084             -200               0             -200               0
1.48026               -0.1665626       -18.46395        -51.36123        8.331054             -200               0             -200               0
1.48684               -0.1718773       -18.63522        -51.14156        5.748162             -200               0             -200               0
1.49342               -0.1774185         -18.808        -50.90966        3.170574             -200               0             -200               0
1.5                   -0.1831737       -18.98222        -50.66558       0.5867216             -200               0             -200               0
1.50658               -0.1891334       -19.15787        -50.40965       -2.014577             -200               0             -200               0
1.51316                -0.195284       -19.33492        -50.14243       -4.643813             -200               0             -200               0
1.51974               -0.2016112       -19.51338        -49.86472       -7.310503             -200               0             -200               0
1.52632               -0.2081003       -19.69328         -49.5775       -10.02299             -200               0             -200               0
1.53289               -0.2147357       -19.87467        -49.28187       -12.78827             -200               0             -200               0
1.53947               -0.2215034       -20.05764        -48.97906       -15.61195             -200               0             -200               0
1.54605               -0.2283883       -20.24228        -48.67034       -18.49822             -200               0             -200               0
1.55263               -0.2353804       -20.42873        -48.35698       -21.44987             -200               0             -200               0
1.55921               -0.2424697       -20.61713        -48.04028       -24.46841             -200               0             -200               0
1.56579               -0.2496481       -20.80765        -47.72144       -27.55418             -200               0             -200               0
1.57237               -0.2569131       -21.00048        -47.40163       -30.70647             -200               0             -200               0
1.57895               -0.2642656       -21.19582        -47.08194       -33.92366             -200               0             -200               0
1.58553               -0.2717105       -21.39387        -46.76335       -37.20341             -200               0             -200               0
1.59211               -0.2792542       -21.59486        -46.44674       -40.54274             -200               0             -200               0
1.59868                 -0.28691       -21.79899         -46.1329       -43.93819             -200               0             -200               0
1.60526               -0.2946972       -22.00648        -45.82252       -47.38592             -200               0             -200               0
1.61184               -0.3026366       -22.21754        -45.51617       -50.88185             -200               0             -200               0
1.61842               -0.3107547       -22.43235        -45.21435       -54.42167             -200               0             -200               0
1.625                 -0.3190795       -22.65109        -44.91746       -58.00101             -200               0             -200               0
1.63158               -0.3276454       -22.87393         -44.6258       -61.61539             -200               0             -200               0
1.63816               -0.3364876       -23.10099         -44.3396       -65.26039             -200               0             -200               0
1.64474                -0.345644       -23.33239        -44.05902        -68.9316             -200               0             -200               0
1.65132               -0.3551544       -23.56821        -43.78415        -72.6247             -200               0             -200               0
1.65789               -0.3650595        -23.8085        -43.51499       -76.33548             -200               0             -200               0
1.66447               -0.3753989       -24.05329        -43.25152       -80.05984             -200               0             -200               0
1.67105               -0.3862154       -24.30258        -42.99362       -83.79386             -200               0             -200               0
1.67763               -0.3975455       -24.55634        -42.74114       -87.53378             -200               0             -200               0
1.68421               -0.4094276       -24.81451        -42.49387       -91.27602             -200               0             -200               0
1.69079                -0.421897       -25.07703        -42.25157       -95.01723             -200               0             -200               0
1.69737               -0.4349844       -25.34378        -42.01393       -98.75426             -200               0             -200               0
1.70395               -0.4487187       -25.61468        -41.78061       -102.4842             -200               0             -200               0
1.71053               -0.4631246       -25.88959        -41.55123       -106.2045             -200               0             -200               0
1.71711               -0.4782219       -26.16839        -41.32536       -109.9127             -200               0             -200               0
1.72368               -0.4940266       -26.45094        -41.10256       -113.6067             -200               0             -200               0
1.73026               -0.5105507       -26.73714        -40.88235        -117.285             -200               0             -200               0
1.73684                -0.527802       -27.02688        -40.66421        -120.946             -200               0             -200               0
1.74342               -0.5457846       -27.32004         -40.4476       -124.5888             -200               0             -200               0
1.75                  -0.5644982       -27.61657          -40.232       -128.2128             -200               0             -200               0
1.75658               -0.5839413       -27.91641        -40.01682       -131.8177             -200               0             -200               0
1.76316               -0.6041074       -28.21954        -39.80151       -135.4038             -200               0             -200               0
1.76974               -0.6249911       -28.52598        -39.58551       -138.9717             -200               0             -200               0
1.77632               -0.6465844       -28.83578        -39.36826       -142.5225             -200               0             -200               0
1.78289               -0.6688793       -29.14903        -39.14924       -146.0577             -200               0             -200               0
1.78947               -0.6918719       -29.46585        -38.92792       -149.5792             -200               0             -200               0
1.79605                -0.715557       -29.78642        -38.70385       -153.0894             -200               0             -200               0
1.80263                -0.739933       -30.11096        -38.47659        -156.591             -200               0             -200               0
1.80921               -0.7650046        -30.4397        -38.24576       -160.0871             -200               0             -200               0
1.81579                -0.790779       -30.77292        -38.01104       -163.5811             -200               0             -200               0
1.82237               -0.8172714       -31.11095        -37.77218       -167.0766             -200               0             -200               0
1.82895               -0.8445043       -31.45413        -37.52899       -170.5773             -200               0             -200               0
1.83553               -0.8725047       -31.80281        -37.28135       -174.0873             -200               0             -200               0
1.84211               -0.9013127       -32.15739        -37.02922       -177.6104             -200               0             -200               0
1.84868               -0.9309729       -32.51824        -36.77263        178.8493             -200               0             -200               0
1.85526               -0.9615431       -32.88576        -36.51168        175.2879             -200               0             -200               0
1.86184               -0.9930866       -33.26033        -36.24653        171.7017             -200               0             -200               0
1.86842                 -1.02568       -33.64231        -35.97743        168.0872             -200               0             -200               0
1.875                  -1.059407       -34.03207        -35.70465         164.441             -200               0             -200               0
1.88158                -1.094361       -34.42992        -35.42854        160.7602             -200               0             -200               0
1.88816                -1.130647       -34.83615        -35.14947        157.0419             -200               0             -200               0
1.89474                -1.168373       -35.25099        -34.86785        153.2838             -200               0             -200               0
1.90132                -1.207658       -35.67466        -34.58413         149.484             -200               0             -200               0
1.90789                -1.248629       -36.10728        -34.29876        145.6407             -200               0             -200               0
1.91447                -1.291416       -36.54894        -34.01221        141.7526             -200               0             -200               0
1.92105                -1.336157       -36.99966        -33.72495        137.8188             -200               0             -200               0
1.92763                -1.382991        -37.4594        -33.43745        133.8386             -200               0             -200               0
1.93421                -1.432064       -37.92804        -33.15017        129.8116             -200               0             -200               0
1.94079                 -1.48352       -38.40541        -32.86356        125.7378             -200               0             -200               0
1.94737                -1.537508       -38.89127        -32.57805        121.6173             -200               0             -200               0
1.95395                -1.594176        -39.3853        -32.29406        117.4506             -200               0             -200               0
1.96053                -1.653669       -39.88713        -32.01199        113.2383             -200               0             -200               0
1.96711                -1.716135       -40.39632         -31.7322        108.9811             -200               0             -200               0
1.97368                -1.781716       -40.91238        -31.45504          104.68             -200               0             -200               0
1.98026                -1.850556       -41.43475        -31.18083         100.336             -200               0             -200               0
1.98684                 -1.92279       -41.96283        -30.90989        95.95028             -200               0             -200               0
1.99342                -1.998554       -42.49596        -30.64248        91.52409             -200               0             -200               0
2                      -2.077977       -43.03344        -30.37886        87.05872             -200               0             -200               0
2.00658                -2.161188       -43.57458        -30.11926        82.55553             -200               0             -200               0
2.01316                 -2.24831       -44.11857        -29.86389        78.01589             -200               0             -200               0
2.01974                -2.339462       -44.66465        -29.61294        73.44122             -200               0             -200               0
2.02632                 -2.43476       -45.21198        -29.36658        68.83291             -200               0             -200               0
2.03289                -2.534321       -45.75975        -29.12498        64.19239             -200               0             -200               0
2.03947                -2.638253       -46.30709        -28.88825        59.52108             -200               0             -200               0
2.04605                -2.746669       -46.85314        -28.65654        54.82035             -200               0             -200               0
2.05263                -2.859679       -47.39702        -28.42995         50.0916             -200               0             -200               0
2.05921                -2.977393       -47.93786        -28.20856        45.33618             -200               0             -200               0
2.06579                -3.099924       -48.47474        -27.99247        40.55541             -200               0             -200               0
2.07237                -3.227387       -49.00677        -27.78175         35.7506             -200               0             -200               0
2.07895                -3.359904       -49.53301        -27.57646        30.92303             -200               0             -200               0
2.08553                -3.497597       -50.05254        -27.37666        26.07392             -200               0             -200               0
2.09211                -3.640603       -50.56439        -27.18239        21.20449             -200               0             -200               0
2.09868                -3.789061       -51.06757        -26.99369        16.31592             -200               0             -200               0
2.10526                -3.943125       -51.56105        -26.81059        11.40934             -200               0             -200               0
2.11184                -4.102958       -52.04375        -26.63311        6.485884             -200               0             -200               0
2.11842                -4.268738       -52.51452        -26.46129         1.54662             -200               0             -200               0
2.125                  -4.440659       -52.97215        -26.29514       -3.407397             -200               0             -200               0
2.13158                -4.618929       -53.41531        -26.13466       -8.375146             -200               0             -200               0
2.13816                -4.803777       -53.84258        -25.97986       -13.35563             -200               0             -200               0
2.14474                 -4.99545       -54.25235        -25.83076       -18.34788             -200               0             -200               0
2.15132                -5.194215       -54.64289        -25.68735       -23.35097             -200               0             -200               0
2.15789                -5.400362       -55.01225        -25.54963       -28.36395             -200               0             -200               0
2.16447                -5.614205       -55.35823         -25.4176       -33.38595             -200               0             -200               0
2.17105                -5.836075       -55.67835        -25.29126        -38.4161             -200               0             -200               0
2.17763                -6.066332       -55.96984        -25.17059       -43.45353             -200               0             -200               0
2.18421                -6.305356        -56.2295        -25.05558       -48.49741             -200               0             -200               0
2.19079                 -6.55355       -56.45375        -24.94624       -53.54693             -200               0             -200               0
2.19737                -6.811334       -56.63844        -24.84254       -58.60129             -200               0             -200               0
2.20395                -7.079146       -56.77889        -24.74448       -63.65969             -200               0             -200               0
2.21053                -7.357436       -56.86974        -24.65204       -68.72137             -200               0             -200               0
2.21711                -7.646662       -56.90483         -24.5652       -73.78556             -200               0             -200               0
2.22368                -7.947278       -56.87712        -24.48396       -78.85152             -200               0             -200               0
2.23026                -8.259724       -56.77857        -24.40829       -83.91849             -200               0             -200               0
2.23684                -8.584413       -56.59997        -24.33817       -88.98576             -200               0             -200               0
2.24342                  -8.9217       -56.33075         -24.2736       -94.05258             -200               0             -200               0
2.25                   -9.271864       -55.95881        -24.21455       -99.11825             -200               0             -200               0
2.25658                -9.635067       -55.47038        -24.16101        -104.182             -200               0             -200               0
2.26316                -10.01129       -54.84973        -24.11295       -109.2432             -200               0             -200               0
2.26974                -10.40029       -54.07899        -24.07035       -114.3011             -200               0             -200               0
2.27632                -10.80148       -53.13801        -24.03319        -119.355             -200               0             -200               0
2.28289                -11.21383       -52.00423        -24.00145       -124.4042             -200               0             -200               0
2.28947                -11.63572       -50.65274        -23.97511       -129.4479             -200               0             -200               0