! TOUCHSTONE file generated by CST MICROWAVE STUDIO
! Date and time: Sat Mar  8 13:54:54 2025
! Project name: non_fractured.cst
! Parameters = {B=2.5; D=160; F=20; Feed=2.85625; L=100; M=10; R=0.384908; S=1.5; Theta=270; length=57.125; wave=114.25}
! Header version: 2024
! Port assignment regex: !\s*Touchstone port\s*([0-9]+)\s*=\s*(CST MWS port|CST DES external port|CST DES block port)\s*(.+)\s* \(\"(.*)\"\)(\s*mode\s*([0-9]+))?.*
! Touchstone port assignment:
! Touchstone port 1 = CST MWS port 1 ("")
! Touchstone port 2 = CST MWS port 2 ("")
# GHz S DB R 50
1                    -0.01802305       -9.742902          -69.733       -142.7258             -200               0             -200               0
1.0066               -0.01887223       -9.831588        -69.44788       -145.9142             -200               0             -200               0
1.0132               -0.01977284       -9.920589        -69.17931       -149.1056             -200               0             -200               0
1.0198               -0.02071839       -10.00989        -68.92669       -152.2876             -200               0             -200               0
1.0264               -0.02170135       -10.09946        -68.68933       -155.4485             -200               0             -200               0
1.033                -0.02271379       -10.18931        -68.46639       -158.5769             -200               0             -200               0
1.0396                -0.0237461       -10.27943         -68.2569       -161.6623             -200               0             -200               0
1.0462               -0.02479225       -10.36984        -68.05976       -164.6945             -200               0             -200               0
1.05281              -0.02584311       -10.46056        -67.87374       -167.6642             -200               0             -200               0
1.05941              -0.02689113       -10.55163        -67.69743       -170.5624             -200               0             -200               0
1.06601              -0.02792904       -10.64309         -67.5293       -173.3812             -200               0             -200               0
1.07261              -0.02895189       -10.73499        -67.36762       -176.1136             -200               0             -200               0
1.07921              -0.02995406       -10.82739        -67.21051       -178.7536             -200               0             -200               0
1.08581              -0.03093268       -10.92035        -67.05593        178.7034             -200               0             -200               0
1.09241              -0.03188542       -11.01394        -66.90169        176.2602             -200               0             -200               0
1.09901              -0.03281231       -11.10823        -66.74549        173.9177             -200               0             -200               0
1.10561              -0.03371489       -11.20329        -66.58494        171.6748             -200               0             -200               0
1.11221              -0.03459522        -11.2992        -66.41764        169.5278             -200               0             -200               0
1.11881               -0.0354581       -11.39601        -66.24121        167.4704             -200               0             -200               0
1.12541              -0.03630934        -11.4938         -66.0534        165.4937             -200               0             -200               0
1.13201              -0.03715542       -11.59261        -65.85218        163.5862             -200               0             -200               0
1.13861              -0.03800528        -11.6925         -65.6358         161.734             -200               0             -200               0
1.14521              -0.03886835       -11.79351         -65.4029        159.9212             -200               0             -200               0
1.15182              -0.03975307       -11.89566        -65.15254        158.1306             -200               0             -200               0
1.15842              -0.04067103       -11.99899        -64.88431         156.344             -200               0             -200               0
1.16502              -0.04163231       -12.10349        -64.59825        154.5433             -200               0             -200               0
1.17162               -0.0426461       -12.20918        -64.29491         152.711             -200               0             -200               0
1.17822              -0.04372415       -12.31603        -63.97529        150.8309             -200               0             -200               0
1.18482              -0.04487426       -12.42402        -63.64074        148.8887             -200               0             -200               0
1.19142              -0.04610409       -12.53314        -63.29292        146.8723             -200               0             -200               0
1.19802              -0.04742207       -12.64334         -62.9337        144.7721             -200               0             -200               0
1.20462              -0.04883372       -12.75457        -62.56505         142.581             -200               0             -200               0
1.21122              -0.05034272        -12.8668        -62.18899        140.2943             -200               0             -200               0
1.21782              -0.05195171       -12.97997        -61.80749        137.9097             -200               0             -200               0
1.22442              -0.05366087       -13.09403        -61.42245        135.4267             -200               0             -200               0
1.23102              -0.05547135       -13.20893        -61.03562        132.8466             -200               0             -200               0
1.23762              -0.05737958       -13.32462        -60.64862        130.1723             -200               0             -200               0
1.24422               -0.0593808       -13.44106        -60.26289        127.4075             -200               0             -200               0
1.25083              -0.06147047       -13.55821        -59.87969        124.5569             -200               0             -200               0
1.25743              -0.06364166       -13.67605        -59.50011        121.6259             -200               0             -200               0
1.26403              -0.06588616       -13.79455        -59.12508        118.6201             -200               0             -200               0
1.27063              -0.06819512       -13.91372        -58.75535        115.5455             -200               0             -200               0
1.27723              -0.07055992       -14.03355        -58.39156        112.4081             -200               0             -200               0
1.28383              -0.07297135       -14.15407        -58.03419        109.2138             -200               0             -200               0
1.29043               -0.0754188       -14.27529        -57.68362        105.9687             -200               0             -200               0
1.29703              -0.07789452       -14.39727        -57.34011        102.6785             -200               0             -200               0
1.30363              -0.08038893       -14.52006        -57.00384        99.34878             -200               0             -200               0
1.31023              -0.08289491       -14.64373        -56.67489        95.98482             -200               0             -200               0
1.31683               -0.0854066       -14.76834        -56.35329        92.59172             -200               0             -200               0
1.32343              -0.08791979       -14.89398        -56.03897        89.17427             -200               0             -200               0
1.33003              -0.09043027       -15.02076        -55.73184        85.73699             -200               0             -200               0
1.33663              -0.09293736       -15.14875        -55.43174        82.28412             -200               0             -200               0
1.34323              -0.09544182       -15.27807        -55.13847         78.8196             -200               0             -200               0
1.34984              -0.09794729       -15.40881        -54.85178        75.34708             -200               0             -200               0
1.35644                -0.100457       -15.54107        -54.57139        71.86992             -200               0             -200               0
1.36304               -0.1029793       -15.67496        -54.29702         68.3912             -200               0             -200               0
1.36964               -0.1055213       -15.81056        -54.02832        64.91369             -200               0             -200               0
1.37624                -0.108095       -15.94796        -53.76494        61.43988             -200               0             -200               0
1.38284               -0.1107113       -16.08724        -53.50651        57.97198             -200               0             -200               0
1.38944               -0.1133825       -16.22846        -53.25264        54.51189             -200               0             -200               0
1.39604                -0.116124       -16.37168        -53.00294        51.06122             -200               0             -200               0
1.40264               -0.1189495       -16.51694        -52.75699        47.62131             -200               0             -200               0
1.40924               -0.1218747       -16.66427        -52.51438        44.19318             -200               0             -200               0
1.41584               -0.1249133       -16.81369        -52.27471        40.77759             -200               0             -200               0
1.42244               -0.1280812       -16.96521        -52.03756        37.37501             -200               0             -200               0
1.42904               -0.1313914       -17.11882        -51.80253         33.9856             -200               0             -200               0
1.43564               -0.1348587        -17.2745        -51.56923         30.6093             -200               0             -200               0
1.44224               -0.1384919       -17.43222        -51.33728        27.24576             -200               0             -200               0
1.44884               -0.1423036       -17.59196        -51.10633        23.89438             -200               0             -200               0
1.45545               -0.1463011       -17.75367        -50.87603        20.55435             -200               0             -200               0
1.46205                -0.150491       -17.91732        -50.64607        17.22464             -200               0             -200               0
1.46865               -0.1548789       -18.08284        -50.41618        13.90402             -200               0             -200               0
1.47525               -0.1594664       -18.25021        -50.18609        10.59112             -200               0             -200               0
1.48185               -0.1642548       -18.41938         -49.9556        7.284409             -200               0             -200               0
1.48845                -0.169243       -18.59031        -49.72452        3.982269             -200               0             -200               0
1.49505               -0.1744286       -18.76299         -49.4927       0.6829993             -200               0             -200               0
1.50165                -0.179806       -18.93739        -49.26004       -2.615143             -200               0             -200               0
1.50825               -0.1853716        -19.1135        -49.02646       -5.913912             -200               0             -200               0
1.51485                -0.191117       -19.29135        -48.79193       -9.215046             -200               0             -200               0
1.52145               -0.1970368       -19.47096        -48.55644       -12.52023             -200               0             -200               0
1.52805               -0.2031228       -19.65236        -48.32003       -15.83107             -200               0             -200               0
1.53465               -0.2093681       -19.83561        -48.08276       -19.14909             -200               0             -200               0
1.54125               -0.2157659       -20.02078        -47.84472       -22.47566             -200               0             -200               0
1.54785                 -0.22231       -20.20796        -47.60601       -25.81203             -200               0             -200               0
1.55446               -0.2289973       -20.39725        -47.36678       -29.15927             -200               0             -200               0
1.56106               -0.2358253       -20.58877        -47.12715       -32.51833             -200               0             -200               0
1.56766               -0.2427931       -20.78265         -46.8873       -35.88991             -200               0             -200               0
1.57426               -0.2499013       -20.97903        -46.64739       -39.27461             -200               0             -200               0
1.58086               -0.2571554       -21.17805        -46.40759        -42.6728             -200               0             -200               0
1.58746               -0.2645629       -21.37987        -46.16807       -46.08468             -200               0             -200               0
1.59406               -0.2721317       -21.58464        -45.92901       -49.51031             -200               0             -200               0
1.60066                -0.279877       -21.79252        -45.69055       -52.94955             -200               0             -200               0
1.60726               -0.2878122       -22.00365        -45.45287       -56.40212             -200               0             -200               0
1.61386               -0.2959567       -22.21818        -45.21609       -59.86763             -200               0             -200               0
1.62046               -0.3043313       -22.43626        -44.98035       -63.34553             -200               0             -200               0
1.62706               -0.3129588       -22.65801        -44.74576       -66.83518             -200               0             -200               0
1.63366               -0.3218657       -22.88355        -44.51242       -70.33585             -200               0             -200               0
1.64026               -0.3310775       -23.11298         -44.2804       -73.84672             -200               0             -200               0
1.64686               -0.3406238       -23.34639        -44.04975       -77.36692             -200               0             -200               0
1.65347               -0.3505342       -23.58385        -43.82051       -80.89553             -200               0             -200               0
1.66007               -0.3608383       -23.82541        -43.59271       -84.43162             -200               0             -200               0
1.66667                -0.371568       -24.07112        -43.36633       -87.97423             -200               0             -200               0
1.67327               -0.3827508       -24.32099        -43.14135       -91.52243             -200               0             -200               0
1.67987                -0.394417       -24.57503        -42.91772       -95.07531             -200               0             -200               0
1.68647               -0.4065955       -24.83324        -42.69537       -98.63197             -200               0             -200               0
1.69307               -0.4193148       -25.09561        -42.47422       -102.1916             -200               0             -200               0
1.69967               -0.4325959        -25.3621        -42.25417       -105.7535             -200               0             -200               0
1.70627               -0.4464671       -25.63268        -42.03509       -109.3169             -200               0             -200               0
1.71287               -0.4609478       -25.90732        -41.81685       -112.8813             -200               0             -200               0
1.71947               -0.4760574       -26.18598         -41.5993       -116.4463             -200               0             -200               0
1.72607               -0.4918154       -26.46863        -41.38229       -120.0114             -200               0             -200               0
1.73267               -0.5082352       -26.75524        -41.16564       -123.5766             -200               0             -200               0
1.73927                -0.525332        -27.0458        -40.94917       -127.1416             -200               0             -200               0
1.74587                -0.543119       -27.34029        -40.73271       -130.7066             -200               0             -200               0
1.75248               -0.5616064       -27.63872        -40.51606       -134.2718             -200               0             -200               0
1.75908               -0.5808059       -27.94112        -40.29905       -137.8376             -200               0             -200               0
1.76568               -0.6007274       -28.24754        -40.08151       -141.4044             -200               0             -200               0
1.77228               -0.6213827       -28.55803        -39.86324        -144.973             -200               0             -200               0
1.77888               -0.6427825       -28.87268        -39.64409       -148.5442             -200               0             -200               0
1.78548               -0.6649404       -29.19159        -39.42391       -152.1189             -200               0             -200               0
1.79208               -0.6878716       -29.51491        -39.20254       -155.6982             -200               0             -200               0
1.79868               -0.7115949       -29.84276        -38.97988       -159.2833             -200               0             -200               0
1.80528               -0.7361309       -30.17533        -38.75582       -162.8755             -200               0             -200               0
1.81188               -0.7615056       -30.51279        -38.53026       -166.4763             -200               0             -200               0
1.81848               -0.7877479       -30.85534        -38.30315        -170.087             -200               0             -200               0
1.82508               -0.8148941       -31.20319        -38.07444       -173.7093             -200               0             -200               0
1.83168               -0.8429829       -31.55656        -37.84413       -177.3446             -200               0             -200               0
1.83828               -0.8720613       -31.91566        -37.61222        179.0053             -200               0             -200               0
1.84488               -0.9021818       -32.28071        -37.37874        175.3389             -200               0             -200               0
1.85149               -0.9334014       -32.65193        -37.14375        171.6547             -200               0             -200               0
1.85809               -0.9657853        -33.0295        -36.90733        167.9511             -200               0             -200               0
1.86469               -0.9994036       -33.41361        -36.66959        164.2265             -200               0             -200               0
1.87129                -1.034334       -33.80442        -36.43065        160.4796             -200               0             -200               0
1.87789                -1.070659       -34.20206        -36.19065         156.709             -200               0             -200               0
1.88449                -1.108465       -34.60665        -35.94976        152.9136             -200               0             -200               0
1.89109                -1.147847       -35.01823        -35.70816         149.092             -200               0             -200               0
1.89769                -1.188901       -35.43685        -35.46604        145.2434             -200               0             -200               0
1.90429                 -1.23173       -35.86249         -35.2236        141.3668             -200               0             -200               0
1.91089                -1.276439        -36.2951        -34.98106        137.4615             -200               0             -200               0
1.91749                -1.323134       -36.73457        -34.73862        133.5267             -200               0             -200               0
1.92409                -1.371925       -37.18076        -34.49653         129.562             -200               0             -200               0
1.93069                -1.422924       -37.63346          -34.255        125.5668             -200               0             -200               0
1.93729                -1.476242       -38.09242        -34.01427         121.541             -200               0             -200               0
1.94389                 -1.53199       -38.55736        -33.77455        117.4844             -200               0             -200               0
1.9505                 -1.590279       -39.02792        -33.53609        113.3969             -200               0             -200               0
1.9571                 -1.651218       -39.50372        -33.29909        109.2786             -200               0             -200               0
1.9637                 -1.714915       -39.98433        -33.06378        105.1295             -200               0             -200               0
1.9703                 -1.781475       -40.46928        -32.83037        100.9499             -200               0             -200               0
1.9769                 -1.850998       -40.95806        -32.59905        96.74025             -200               0             -200               0
1.9835                 -1.923587       -41.45013        -32.37003        92.50079             -200               0             -200               0
1.9901                 -1.999335       -41.94493         -32.1435        88.23204             -200               0             -200               0
1.9967                 -2.078337       -42.44186        -31.91963        83.93453             -200               0             -200               0
2.0033                 -2.160681       -42.94031         -31.6986        79.60884             -200               0             -200               0
2.0099                 -2.246452       -43.43965        -31.48057        75.25559             -200               0             -200               0
2.0165                 -2.335737       -43.93923        -31.26569        70.87547             -200               0             -200               0
2.0231                 -2.428612       -44.43841        -31.05411        66.46917             -200               0             -200               0
2.0297                  -2.52516       -44.93652        -30.84595        62.03745             -200               0             -200               0
2.0363                 -2.625456       -45.43291        -30.64136        57.58105             -200               0             -200               0
2.0429                 -2.729577       -45.92692        -30.44045        53.10077             -200               0             -200               0
2.0495                   -2.8376        -46.4179        -30.24332        48.59741             -200               0             -200               0
2.05611                -2.949604       -46.90519        -30.05008        44.07177             -200               0             -200               0
2.06271                -3.065668       -47.38815        -29.86083        39.52467             -200               0             -200               0
2.06931                -3.185876       -47.86612        -29.67565        34.95695             -200               0             -200               0
2.07591                -3.310318       -48.33849        -29.49463        30.36942             -200               0             -200               0
2.08251                -3.439087       -48.80459        -29.31783        25.76292             -200               0             -200               0
2.08911                -3.572285       -49.26378        -29.14532        21.13828             -200               0             -200               0
2.09571                -3.710023        -49.7154        -28.97717         16.4963             -200               0             -200               0
2.10231                -3.852421       -50.15877        -28.81344        11.83781             -200               0             -200               0
2.10891                -3.999611       -50.59318        -28.65417        7.163635             -200               0             -200               0
2.11551                 -4.15174       -51.01789        -28.49941        2.474561             -200               0             -200               0
2.12211                -4.308968       -51.43211        -28.34921       -2.228609             -200               0             -200               0
2.12871                -4.471469       -51.83497        -28.20359        -6.94509             -200               0             -200               0
2.13531                -4.639439       -52.22553         -28.0626        -11.6741             -200               0             -200               0
2.14191                -4.813088       -52.60274        -27.92627       -16.41487             -200               0             -200               0
2.14851                -4.992647       -52.96545        -27.79461       -21.16665             -200               0             -200               0
2.15512                -5.178369       -53.31234        -27.66766       -25.92868             -200               0             -200               0
2.16172                -5.370525       -53.64192        -27.54544       -30.70022             -200               0             -200               0
2.16832                -5.569412       -53.95251        -27.42795       -35.48054             -200               0             -200               0
2.17492                -5.775345       -54.24218        -27.31523       -40.26892             -200               0             -200               0
2.18152                -5.988665       -54.50873        -27.20727       -45.06465             -200               0             -200               0
2.18812                -6.209735       -54.74966        -27.10409       -49.86702             -200               0             -200               0
2.19472                -6.438935       -54.96208         -27.0057       -54.67534             -200               0             -200               0
2.20132                -6.676671        -55.1427         -26.9121       -59.48892             -200               0             -200               0
2.20792                -6.923364       -55.28776        -26.82329       -64.30707             -200               0             -200               0
2.21452                -7.179453       -55.39294        -26.73929       -69.12913             -200               0             -200               0
2.22112                -7.445387       -55.45332        -26.66009       -73.95441             -200               0             -200               0
2.22772                -7.721621       -55.46324        -26.58568       -78.78228             -200               0             -200               0
2.23432                -8.008612       -55.41627        -26.51607       -83.61206             -200               0             -200               0
2.24092                -8.306803       -55.30501        -26.45125        -88.4431             -200               0             -200               0
2.24752                -8.616616       -55.12104        -26.39121       -93.27476             -200               0             -200               0
2.25413                -8.938429       -54.85475        -26.33596       -98.10639             -200               0             -200               0
2.26073                -9.272554       -54.49511        -26.28547       -102.9373             -200               0             -200               0
2.26733                -9.619209       -54.02961        -26.23975        -107.767             -200               0             -200               0
2.27393                -9.978468       -53.44401        -26.19877       -112.5947             -200               0             -200               0
2.28053                -10.35021       -52.72211        -26.16253       -117.4198             -200               0             -200               0
2.28713                -10.73405       -51.84565        -26.13101       -122.2418             -200               0             -200               0
2.29373                -11.12924       -50.79414        -26.10419       -127.0598             -200               0             -200               0