! TOUCHSTONE file generated by CST MICROWAVE STUDIO
! Date and time: Sat Mar  8 13:54:44 2025
! Project name: non_fractured.cst
! Parameters = {B=2.5; D=160; F=10; Feed=2.85625; L=100; M=10; R=0.384908; S=2.5; Theta=270; length=57.125; wave=114.25}
! Header version: 2024
! Port assignment regex: !\s*Touchstone port\s*([0-9]+)\s*=\s*(CST MWS port|CST DES external port|CST DES block port)\s*(.+)\s* \(\"(.*)\"\)(\s*mode\s*([0-9]+))?.*
! Touchstone port assignment:
! Touchstone port 1 = CST MWS port 1 ("")
! Touchstone port 2 = CST MWS port 2 ("")
# GHz S DB R 50
1                    -0.01815724       -9.751717        -70.32318       -122.6661             -200               0             -200               0
1.00658              -0.01886851       -9.840405        -69.75967        -126.652             -200               0             -200               0
1.01316              -0.01963638       -9.929546        -69.24339       -130.7553             -200               0             -200               0
1.01974              -0.02045679       -10.01911        -68.77125       -134.9445             -200               0             -200               0
1.02632              -0.02132706       -10.10906        -68.34049       -139.1936             -200               0             -200               0
1.03289              -0.02224087       -10.19938        -67.94871       -143.4808             -200               0             -200               0
1.03947              -0.02319257       -10.29005         -67.5938       -147.7874             -200               0             -200               0
1.04605              -0.02417537       -10.38107        -67.27392       -152.0966             -200               0             -200               0
1.05263              -0.02518176       -10.47243        -66.98745       -156.3936             -200               0             -200               0
1.05921              -0.02620583       -10.56414        -66.73296       -160.6641             -200               0             -200               0
1.06579              -0.02723864       -10.65622        -66.50916       -164.8948             -200               0             -200               0
1.07237               -0.0282753        -10.7487         -66.3149       -169.0725             -200               0             -200               0
1.07895              -0.02930825       -10.84161        -66.14909       -173.1839             -200               0             -200               0
1.08553              -0.03033179       -10.93498        -66.01067       -177.2155             -200               0             -200               0
1.09211              -0.03134186       -11.02889         -65.8986        178.8468             -200               0             -200               0
1.09868               -0.0323339       -11.12337        -65.81179        175.0178             -200               0             -200               0
1.10526               -0.0333051       -11.21848        -65.74903        171.3132             -200               0             -200               0
1.11184              -0.03425564        -11.3143        -65.70895        167.7497             -200               0             -200               0
1.11842               -0.0351836       -11.41089        -65.68992        164.3454             -200               0             -200               0
1.125                -0.03609156       -11.50831           -65.69        161.1189             -200               0             -200               0
1.13158              -0.03698319       -11.60663        -65.70676        158.0902             -200               0             -200               0
1.13816              -0.03786073        -11.7059        -65.73723        155.2795             -200               0             -200               0
1.14474              -0.03873101        -11.8062        -65.77773         152.707             -200               0             -200               0
1.15132              -0.03960001       -11.90758        -65.82377        150.3917             -200               0             -200               0
1.15789              -0.04047554       -12.01007         -65.8699        148.3498             -200               0             -200               0
1.16447              -0.04136602       -12.11373        -65.90971         146.593             -200               0             -200               0
1.17105               -0.0422812       -12.21858        -65.93585        145.1258             -200               0             -200               0
1.17763              -0.04322904       -12.32464        -65.94018        143.9429             -200               0             -200               0
1.18421              -0.04422087       -12.43194        -65.91421        143.0264             -200               0             -200               0
1.19079              -0.04526573       -12.54047        -65.84963        142.3441             -200               0             -200               0
1.19737               -0.0463725       -12.65023        -65.73907        141.8488             -200               0             -200               0
1.20395              -0.04755071       -12.76121        -65.57688        141.4801             -200               0             -200               0
1.21053              -0.04880831       -12.87338        -65.35986        141.1683             -200               0             -200               0
1.21711               -0.0501513       -12.98673        -65.08765          140.84             -200               0             -200               0
1.22368              -0.05158685        -13.1012        -64.76277        140.4249             -200               0             -200               0
1.23026              -0.05311994       -13.21678         -64.3902        139.8615             -200               0             -200               0
1.23684              -0.05475328        -13.3334        -63.97674        139.1012             -200               0             -200               0
1.24342              -0.05648939       -13.45105        -63.53021        138.1103             -200               0             -200               0
1.25                 -0.05832761       -13.56965        -63.05864        136.8695             -200               0             -200               0
1.25658              -0.06026822       -13.68919        -62.56973        135.3725             -200               0             -200               0
1.26316              -0.06230822       -13.80962        -62.07042        133.6228             -200               0             -200               0
1.26974              -0.06444353       -13.93091        -61.56671        131.6315             -200               0             -200               0
1.27632              -0.06666966       -14.05303        -61.06357        129.4144             -200               0             -200               0
1.28289              -0.06898035       -14.17597        -60.56501        126.9901             -200               0             -200               0
1.28947              -0.07136946       -14.29971        -60.07415        124.3785             -200               0             -200               0
1.29605              -0.07382888       -14.42426        -59.59336        121.5996             -200               0             -200               0
1.30263               -0.0763517       -14.54964        -59.12441        118.6728             -200               0             -200               0
1.30921              -0.07892882       -14.67585         -58.6685        115.6166             -200               0             -200               0
1.31579              -0.08155308       -14.80294        -58.22647        112.4481             -200               0             -200               0
1.32237              -0.08421794       -14.93095        -57.79879        109.1833             -200               0             -200               0
1.32895              -0.08691567       -15.05994        -57.38571        105.8367             -200               0             -200               0
1.33553              -0.08964115       -15.18997        -56.98724        102.4216             -200               0             -200               0
1.34211              -0.09239047       -15.32112        -56.60325        98.95019             -200               0             -200               0
1.34868               -0.0951602       -15.45346        -56.23349        95.43339             -200               0             -200               0
1.35526              -0.09794843       -15.58709        -55.87759        91.88124             -200               0             -200               0
1.36184                -0.100755       -15.72209        -55.53512        88.30288             -200               0             -200               0
1.36842               -0.1035837       -15.85856        -55.20558        84.70658             -200               0             -200               0
1.375                 -0.1064361        -15.9966        -54.88841        81.09992             -200               0             -200               0
1.38158               -0.1093191       -16.13629        -54.58302        77.48976             -200               0             -200               0
1.38816               -0.1122398       -16.27774        -54.28877        73.88237             -200               0             -200               0
1.39474               -0.1152062       -16.42101        -54.00498        70.28339             -200               0             -200               0
1.40132               -0.1182298       -16.56621        -53.73095        66.69796             -200               0             -200               0
1.40789               -0.1213222        -16.7134        -53.46596        63.13066             -200               0             -200               0
1.41447               -0.1244971       -16.86264        -53.20923        59.58556             -200               0             -200               0
1.42105               -0.1277666       -17.01398           -52.96        56.06623             -200               0             -200               0
1.42763               -0.1311464       -17.16747        -52.71744        52.57571             -200               0             -200               0
1.43421               -0.1346509       -17.32314        -52.48075        49.11653             -200               0             -200               0
1.44079               -0.1382956       -17.48101        -52.24907        45.69069             -200               0             -200               0
1.44737               -0.1420943       -17.64109        -52.02156        42.29963             -200               0             -200               0
1.45395               -0.1460624       -17.80338        -51.79737        38.94425             -200               0             -200               0
1.46053               -0.1502112       -17.96786        -51.57565        35.62488             -200               0             -200               0
1.46711               -0.1545549       -18.13452        -51.35555        32.34123             -200               0             -200               0
1.47368               -0.1591038       -18.30332        -51.13625        29.09249             -200               0             -200               0
1.48026               -0.1638668       -18.47424        -50.91696         25.8772             -200               0             -200               0
1.48684               -0.1688528       -18.64724        -50.69693        22.69337             -200               0             -200               0
1.49342               -0.1740683       -18.82228        -50.47545        19.53847             -200               0             -200               0
1.5                   -0.1795173       -18.99932        -50.25187        16.40945             -200               0             -200               0
1.50658               -0.1852026       -19.17831        -50.02563        13.30282             -200               0             -200               0
1.51316               -0.1911257       -19.35924        -49.79623        10.21469             -200               0             -200               0
1.51974               -0.1972859       -19.54208        -49.56326        7.140863             -200               0             -200               0
1.52632               -0.2036826        -19.7268        -49.32641        4.076905             -200               0             -200               0
1.53289                -0.210312        -19.9134        -49.08547        1.018242             -200               0             -200               0
1.53947                 -0.21717       -20.10188        -48.84031       -2.039748             -200               0             -200               0
1.54605               -0.2242523       -20.29226         -48.5909       -5.101633             -200               0             -200               0
1.55263               -0.2315549       -20.48457        -48.33734       -8.171851             -200               0             -200               0
1.55921               -0.2390712       -20.67885        -48.07975        -11.2546             -200               0             -200               0
1.56579               -0.2467983       -20.87515        -47.81839       -14.35381             -200               0             -200               0
1.57237               -0.2547321       -21.07356        -47.55355       -17.47303             -200               0             -200               0
1.57895               -0.2628682       -21.27415         -47.2856       -20.61539             -200               0             -200               0
1.58553               -0.2712068       -21.47703        -47.01494        -23.7836             -200               0             -200               0
1.59211               -0.2797472        -21.6823        -46.74202       -26.97989             -200               0             -200               0
1.59868               -0.2884912       -21.89009         -46.4673       -30.20602             -200               0             -200               0
1.60526               -0.2974437       -22.10053        -46.19126       -33.46328             -200               0             -200               0
1.61184               -0.3066108       -22.31375        -45.91438       -36.75252             -200               0             -200               0
1.61842               -0.3160023       -22.52989        -45.63715       -40.07413             -200               0             -200               0
1.625                 -0.3256284        -22.7491        -45.36001       -43.42813             -200               0             -200               0
1.63158               -0.3355043       -22.97151         -45.0834       -46.81416             -200               0             -200               0
1.63816               -0.3456471       -23.19727        -44.80775       -50.23153             -200               0             -200               0
1.64474               -0.3560759       -23.42651        -44.53344       -53.67925             -200               0             -200               0
1.65132               -0.3668125       -23.65935         -44.2608       -57.15613             -200               0             -200               0
1.65789               -0.3778816       -23.89592        -43.99015       -60.66071             -200               0             -200               0
1.66447               -0.3893078       -24.13632        -43.72177        -64.1914             -200               0             -200               0
1.67105               -0.4011199       -24.38063        -43.45589       -67.74644             -200               0             -200               0
1.67763               -0.4133467       -24.62896         -43.1927       -71.32401             -200               0             -200               0
1.68421               -0.4260166       -24.88134        -42.93237       -74.92218             -200               0             -200               0
1.69079               -0.4391624       -25.13785          -42.675         -78.539             -200               0             -200               0
1.69737               -0.4528126       -25.39851        -42.42068       -82.17251             -200               0             -200               0
1.70395               -0.4669989       -25.66333        -42.16947       -85.82073             -200               0             -200               0
1.71053               -0.4817529       -25.93233        -41.92136       -89.48175             -200               0             -200               0
1.71711                -0.497101       -26.20551        -41.67634       -93.15367             -200               0             -200               0
1.72368               -0.5130737       -26.48284        -41.43436        -96.8347             -200               0             -200               0
1.73026               -0.5296968       -26.76431        -41.19534       -100.5231             -200               0             -200               0
1.73684               -0.5469969       -27.04987        -40.95917       -104.2173             -200               0             -200               0
1.74342               -0.5649963       -27.33949        -40.72572       -107.9157             -200               0             -200               0
1.75                  -0.5837174       -27.63314        -40.49484        -111.617             -200               0             -200               0
1.75658               -0.6031808       -27.93077        -40.26635         -115.32             -200               0             -200               0
1.76316               -0.6234039       -28.23237        -40.04005       -119.0235             -200               0             -200               0
1.76974               -0.6444049        -28.5379        -39.81575       -122.7267             -200               0             -200               0
1.77632               -0.6661979       -28.84734        -39.59321       -126.4288             -200               0             -200               0
1.78289               -0.6887985       -29.16071        -39.37221       -130.1293             -200               0             -200               0
1.78947                 -0.71222         -29.478         -39.1525       -133.8277             -200               0             -200               0
1.79605               -0.7364744       -29.79926        -38.93385       -137.5239             -200               0             -200               0
1.80263               -0.7615766       -30.12452        -38.71601       -141.2179             -200               0             -200               0
1.80921               -0.7875387       -30.45386        -38.49873       -144.9098             -200               0             -200               0
1.81579               -0.8143782       -30.78737        -38.28178          -148.6             -200               0             -200               0
1.82237               -0.8421104       -31.12516        -38.06492       -152.2892             -200               0             -200               0
1.82895               -0.8707547       -31.46735        -37.84793       -155.9779             -200               0             -200               0
1.83553               -0.9003336        -31.8141        -37.63061       -159.6672             -200               0             -200               0
1.84211               -0.9308721       -32.16557        -37.41276        -163.358             -200               0             -200               0
1.84868               -0.9624005       -32.52196        -37.19421       -167.0516             -200               0             -200               0
1.85526                -0.994953       -32.88345        -36.97482       -170.7494             -200               0             -200               0
1.86184                -1.028568       -33.25025        -36.75445       -174.4528             -200               0             -200               0
1.86842                -1.063291       -33.62259        -36.53301       -178.1633             -200               0             -200               0
1.875                  -1.099174       -34.00069        -36.31041        178.1175             -200               0             -200               0
1.88158                -1.136272       -34.38475        -36.08662        174.3878             -200               0             -200               0
1.88816                -1.174649         -34.775        -35.86162        170.6461             -200               0             -200               0
1.89474                -1.214376       -35.17165        -35.63541        166.8905             -200               0             -200               0
1.90132                -1.255528       -35.57487        -35.40803        163.1195             -200               0             -200               0
1.90789                -1.298188       -35.98486        -35.17954        159.3313             -200               0             -200               0
1.91447                -1.342445       -36.40175        -34.95004        155.5244             -200               0             -200               0
1.92105                -1.388396       -36.82566        -34.71963        151.6972             -200               0             -200               0
1.92763                -1.436141       -37.25669        -34.48845        147.8483             -200               0             -200               0
1.93421                -1.485788       -37.69488        -34.25666        143.9763             -200               0             -200               0
1.94079                -1.537446       -38.14025        -34.02443        140.0801             -200               0             -200               0
1.94737                -1.591236       -38.59278        -33.79194        136.1585             -200               0             -200               0
1.95395                -1.647276       -39.05239        -33.55941        132.2106             -200               0             -200               0
1.96053                -1.705691       -39.51895        -33.32703        128.2355             -200               0             -200               0
1.96711                -1.766608       -39.99231        -33.09504        124.2324             -200               0             -200               0
1.97368                -1.830158       -40.47225        -32.86365        120.2009             -200               0             -200               0
1.98026                -1.896472       -40.95848        -32.63309        116.1405             -200               0             -200               0
1.98684                -1.965684       -41.45071        -32.40359        112.0509             -200               0             -200               0
1.99342                -2.037929       -41.94856        -32.17539        107.9318             -200               0             -200               0
2                      -2.113341       -42.45162        -31.94871        103.7833             -200               0             -200               0
2.00658                -2.192056       -42.95941        -31.72377        99.60529             -200               0             -200               0
2.01316                 -2.27421       -43.47143        -31.50079        95.39799             -200               0             -200               0
2.01974                -2.359936       -43.98714        -31.27999        91.16162             -200               0             -200               0
2.02632                -2.449369       -44.50592        -31.06156        86.89652             -200               0             -200               0
2.03289                -2.542643       -45.02715        -30.84571         82.6031             -200               0             -200               0
2.03947                -2.639893       -45.55015        -30.63262        78.28183             -200               0             -200               0
2.04605                -2.741249        -46.0742        -30.42248        73.93328             -200               0             -200               0
2.05263                -2.846846       -46.59856        -30.21545        69.55803             -200               0             -200               0
2.05921                -2.956816       -47.12246         -30.0117        65.15675             -200               0             -200               0
2.06579                -3.071292       -47.64507        -29.81138        60.73013             -200               0             -200               0
2.07237                -3.190412       -48.16558        -29.61463         56.2789             -200               0             -200               0
2.07895                 -3.31431       -48.68309        -29.42158        51.80383             -200               0             -200               0
2.08553                -3.443126       -49.19672        -29.23237         47.3057             -200               0             -200               0
2.09211                -3.577005       -49.70553         -29.0471        42.78532             -200               0             -200               0
2.09868                -3.716093       -50.20855        -28.86589        38.24352             -200               0             -200               0
2.10526                -3.860545       -50.70478        -28.68884        33.68112             -200               0             -200               0
2.11184                 -4.01052       -51.19318        -28.51604        29.09898             -200               0             -200               0
2.11842                -4.166189       -51.67265        -28.34757        24.49795             -200               0             -200               0
2.125                   -4.32773       -52.14205        -28.18351        19.87886             -200               0             -200               0
2.13158                -4.495333       -52.60016        -28.02394        15.24257             -200               0             -200               0
2.13816                -4.669201        -53.0457        -27.86892        10.58994             -200               0             -200               0
2.14474                -4.849552       -53.47728         -27.7185        5.921807             -200               0             -200               0
2.15132                -5.036618       -53.89343        -27.57275        1.239007             -200               0             -200               0
2.15789                -5.230653       -54.29253        -27.43172       -3.457624             -200               0             -200               0
2.16447                -5.431926       -54.67282        -27.29544       -8.167259             -200               0             -200               0
2.17105                -5.640734       -55.03236        -27.16396       -12.88908             -200               0             -200               0
2.17763                -5.857389       -55.36902        -27.03731       -17.62228             -200               0             -200               0
2.18421                -6.082234        -55.6804        -26.91553       -22.36605             -200               0             -200               0
2.19079                -6.315637       -55.96383        -26.79864       -27.11961             -200               0             -200               0
2.19737                -6.557992       -56.21629        -26.68667       -31.88217             -200               0             -200               0
2.20395                -6.809724       -56.43436        -26.57963       -36.65296             -200               0             -200               0
2.21053                -7.071284       -56.61418        -26.47756       -41.43121             -200               0             -200               0
2.21711                -7.343154       -56.75132        -26.38046       -46.21617             -200               0             -200               0
2.22368                -7.625845       -56.84072        -26.28835       -51.00707             -200               0             -200               0
2.23026                -7.919889       -56.87657        -26.20124        -55.8032             -200               0             -200               0
2.23684                -8.225842       -56.85221        -26.11913       -60.60381             -200               0             -200               0
2.24342                -8.544275       -56.75991        -26.04204       -65.40817             -200               0             -200               0
2.25                   -8.875758       -56.59074        -25.96998       -70.21557             -200               0             -200               0
2.25658                -9.220852        -56.3344        -25.90293       -75.02529             -200               0             -200               0
2.26316                -9.580085       -55.97889        -25.84091       -79.83662             -200               0             -200               0
2.26974                -9.953916       -55.51029        -25.78392       -84.64885             -200               0             -200               0
2.27632                 -10.3427       -54.91245        -25.73194       -89.46129             -200               0             -200               0
2.28289                 -10.7466       -54.16661        -25.68499       -94.27323             -200               0             -200               0
2.28947                -11.16554       -53.25105        -25.64305       -99.08399             -200               0             -200               0