! TOUCHSTONE file generated by CST MICROWAVE STUDIO
! Date and time: Sat Mar  8 13:54:12 2025
! Project name: non_fractured.cst
! Parameters = {B=2.5; D=160; F=15; Feed=2.85625; L=100; M=5; R=0.384908; S=2; Theta=0; length=57.125; wave=114.25}
! Header version: 2024
! Port assignment regex: !\s*Touchstone port\s*([0-9]+)\s*=\s*(CST MWS port|CST DES external port|CST DES block port)\s*(.+)\s* \(\"(.*)\"\)(\s*mode\s*([0-9]+))?.*
! Touchstone port assignment:
! Touchstone port 1 = CST MWS port 1 ("")
! Touchstone port 2 = CST MWS port 2 ("")
# GHz S DB R 50
1                    -0.01816254       -9.750079        -67.65532       -118.3557             -200               0             -200               0
1.0066                -0.0188801       -9.838963        -67.10949       -122.9229             -200               0             -200               0
1.0132               -0.01965517       -9.928302          -66.607       -127.5575             -200               0             -200               0
1.0198               -0.02048578       -10.01806         -66.1448       -132.2397             -200               0             -200               0
1.0264               -0.02136629       -10.10821        -65.72028       -136.9529             -200               0             -200               0
1.033                -0.02229242       -10.19873        -65.33118       -141.6832             -200               0             -200               0
1.0396               -0.02325769       -10.28959        -64.97556       -146.4183             -200               0             -200               0
1.0462                -0.0242553       -10.38078        -64.65172       -151.1475             -200               0             -200               0
1.05281               -0.0252773        -10.4723        -64.35821       -155.8609             -200               0             -200               0
1.05941              -0.02631741       -10.56416        -64.09373       -160.5491             -200               0             -200               0
1.06601              -0.02736711       -10.65637        -63.85718       -165.2033             -200               0             -200               0
1.07261              -0.02841909       -10.74896        -63.64753       -169.8149             -200               0             -200               0
1.07921              -0.02946581       -10.84195         -63.4639       -174.3751             -200               0             -200               0
1.08581              -0.03050249       -10.93541        -63.30546       -178.8752             -200               0             -200               0
1.09241              -0.03152202       -11.02937        -63.17142        176.6941             -200               0             -200               0
1.09901               -0.0325213       -11.12389        -63.06105        172.3423             -200               0             -200               0
1.10561              -0.03349586       -11.21903        -62.97359        168.0796             -200               0             -200               0
1.11221              -0.03444473       -11.31487        -62.90823        163.9167             -200               0             -200               0
1.11881              -0.03536641       -11.41146        -62.86414        159.8653             -200               0             -200               0
1.12541               -0.0362628       -11.50889        -62.84031        155.9378             -200               0             -200               0
1.13201              -0.03713574       -11.60723        -62.83563        152.1474             -200               0             -200               0
1.13861              -0.03799042       -11.70654        -62.84872        148.5085             -200               0             -200               0
1.14521              -0.03883028       -11.80689        -62.87793         145.036             -200               0             -200               0
1.15182              -0.03966423       -11.90834        -62.92124        141.7456             -200               0             -200               0
1.15842              -0.04049826       -12.01095        -62.97619        138.6533             -200               0             -200               0
1.16502              -0.04134309       -12.11476        -63.03975        135.7747             -200               0             -200               0
1.17162              -0.04220668       -12.21981         -63.1083        133.1246             -200               0             -200               0
1.17822              -0.04310143       -12.32613        -63.17749        130.7157             -200               0             -200               0
1.18482              -0.04403586       -12.43374        -63.24226        128.5572             -200               0             -200               0
1.19142              -0.04502245       -12.54266        -63.29684        126.6534             -200               0             -200               0
1.19802              -0.04607147       -12.65287        -63.33488        125.0012             -200               0             -200               0
1.20462              -0.04719243       -12.76437        -63.34968         123.589             -200               0             -200               0
1.21122              -0.04839515       -12.87714        -63.33454        122.3948             -200               0             -200               0
1.21782              -0.04968929       -12.99115        -63.28327        121.3853             -200               0             -200               0
1.22442               -0.0510821       -13.10637        -63.19072        120.5171             -200               0             -200               0
1.23102              -0.05257909       -13.22275        -63.05328        119.7381             -200               0             -200               0
1.23762              -0.05418591       -13.34025        -62.86935        118.9912             -200               0             -200               0
1.24422              -0.05590674       -13.45882        -62.63945        118.2183             -200               0             -200               0
1.25083              -0.05774222       -13.57841        -62.36618        117.3651             -200               0             -200               0
1.25743                -0.059693       -13.69897        -62.05386        116.3847             -200               0             -200               0
1.26403              -0.06175753       -13.82045        -61.70808        115.2401             -200               0             -200               0
1.27063              -0.06393374        -13.9428        -61.33509        113.9053             -200               0             -200               0
1.27723              -0.06621662         -14.066        -60.94133        112.3651             -200               0             -200               0
1.28383              -0.06860097          -14.19          -60.533        110.6141             -200               0             -200               0
1.29043              -0.07107965       -14.31479        -60.11576        108.6544             -200               0             -200               0
1.29703              -0.07364515       -14.44035         -59.6946        106.4941             -200               0             -200               0
1.30363              -0.07629007       -14.56668        -59.27374        104.1455             -200               0             -200               0
1.31023              -0.07900493       -14.69378        -58.85667        101.6233             -200               0             -200               0
1.31683              -0.08178185        -14.8217         -58.4462        98.94371             -200               0             -200               0
1.32343              -0.08461088       -14.95044        -58.04451        96.12361             -200               0             -200               0
1.33003              -0.08748533       -15.08006        -57.65327        93.17961             -200               0             -200               0
1.33663              -0.09039735       -15.21061         -57.2737        90.12788             -200               0             -200               0
1.34323              -0.09334078       -15.34216        -56.90665        86.98388             -200               0             -200               0
1.34984              -0.09630999       -15.47478        -56.55267        83.76215             -200               0             -200               0
1.35644              -0.09930221       -15.60855        -56.21207        80.47635             -200               0             -200               0
1.36304               -0.1023139       -15.74357        -55.88492        77.13921             -200               0             -200               0
1.36964               -0.1053456       -15.87992        -55.57116        73.76256             -200               0             -200               0
1.37624               -0.1083991        -16.0177        -55.27056         70.3574             -200               0             -200               0
1.38284               -0.1114767       -16.15701        -54.98278        66.93394             -200               0             -200               0
1.38944               -0.1145839       -16.29793        -54.70737        63.50165             -200               0             -200               0
1.39604               -0.1177272       -16.44058        -54.44379         60.0693             -200               0             -200               0
1.40264               -0.1209152       -16.58502        -54.19141        56.64504             -200               0             -200               0
1.40924                -0.124159       -16.73135        -53.94954        53.23637             -200               0             -200               0
1.41584               -0.1274677       -16.87963        -53.71738        49.85017             -200               0             -200               0
1.42244                -0.130855       -17.02993        -53.49409        46.49271             -200               0             -200               0
1.42904               -0.1343343       -17.18231        -53.27874        43.16966             -200               0             -200               0
1.43564               -0.1379184        -17.3368        -53.07035        39.88598             -200               0             -200               0
1.44224               -0.1416222       -17.49344        -52.86786          36.646             -200               0             -200               0
1.44884               -0.1454597       -17.65226        -52.67015        33.45324             -200               0             -200               0
1.45545               -0.1494439       -17.81326        -52.47607        30.31045             -200               0             -200               0
1.46205               -0.1535874       -17.97645         -52.2844        27.21952             -200               0             -200               0
1.46865               -0.1579036       -18.14181         -52.0939        24.18137             -200               0             -200               0
1.47525               -0.1624026       -18.30933        -51.90331        21.19595             -200               0             -200               0
1.48185               -0.1670949         -18.479        -51.71139        18.26215             -200               0             -200               0
1.48845               -0.1719875       -18.65077        -51.51688        15.37779             -200               0             -200               0
1.49505                -0.177088       -18.82464        -51.31862         12.5396             -200               0             -200               0
1.50165               -0.1824014       -19.00056        -51.11549        9.743242             -200               0             -200               0
1.50825               -0.1879301       -19.17851        -50.90647        6.983368             -200               0             -200               0
1.51485               -0.1936763       -19.35847        -50.69067        4.253713             -200               0             -200               0
1.52145               -0.1996404       -19.54043        -50.46736        1.547224             -200               0             -200               0
1.52805               -0.2058203       -19.72436        -50.23597        -1.14377             -200               0             -200               0
1.53465               -0.2122134       -19.91029         -49.9961       -3.827364             -200               0             -200               0
1.54125                -0.218817       -20.09821        -49.74756       -6.511864             -200               0             -200               0
1.54785               -0.2256276       -20.28816        -49.49035       -9.205566             -200               0             -200               0
1.55446               -0.2326397       -20.48018        -49.22464       -11.91653             -200               0             -200               0
1.56106               -0.2398498       -20.67433         -48.9508        -14.6524             -200               0             -200               0
1.56766               -0.2472534       -20.87066        -48.66934       -17.42017             -200               0             -200               0
1.57426               -0.2548478       -21.06928        -48.38091       -20.22612             -200               0             -200               0
1.58086               -0.2626315       -21.27028        -48.08626       -23.07566             -200               0             -200               0
1.58746               -0.2706033       -21.47378        -47.78623       -25.97325             -200               0             -200               0
1.59406               -0.2787656       -21.67991         -47.4817       -28.92241             -200               0             -200               0
1.60066               -0.2871221       -21.88879         -47.1736       -31.92572             -200               0             -200               0
1.60726               -0.2956797       -22.10059        -46.86284       -34.98484             -200               0             -200               0
1.61386               -0.3044469       -22.31545        -46.55035       -38.10058             -200               0             -200               0
1.62046               -0.3134364       -22.53353        -46.23699       -41.27296             -200               0             -200               0
1.62706               -0.3226633       -22.75499        -45.92359       -44.50132             -200               0             -200               0
1.63366               -0.3321459       -22.97998        -45.61093       -47.78439             -200               0             -200               0
1.64026               -0.3419051       -23.20866        -45.29972        -51.1204             -200               0             -200               0
1.64686               -0.3519662       -23.44118        -44.99061       -54.50712             -200               0             -200               0
1.65347               -0.3623564       -23.67767        -44.68417       -57.94203             -200               0             -200               0
1.66007               -0.3731053       -23.91825        -44.38092       -61.42231             -200               0             -200               0
1.66667               -0.3842453       -24.16302        -44.08128       -64.94494             -200               0             -200               0
1.67327               -0.3958107       -24.41209        -43.78563       -68.50677             -200               0             -200               0
1.67987               -0.4078371       -24.66551        -43.49427       -72.10457             -200               0             -200               0
1.68647               -0.4203612       -24.92335        -43.20744       -75.73504             -200               0             -200               0
1.69307               -0.4334217       -25.18563        -42.92535       -79.39491             -200               0             -200               0
1.69967               -0.4470558       -25.45236         -42.6481       -83.08091             -200               0             -200               0
1.70627               -0.4613024       -25.72353        -42.37579       -86.78983             -200               0             -200               0
1.71287               -0.4761978       -25.99911        -42.10846       -90.51856             -200               0             -200               0
1.71947               -0.4917767       -26.27905        -41.84608       -94.26406             -200               0             -200               0
1.72607               -0.5080759       -26.56328        -41.58861       -98.02342             -200               0             -200               0
1.73267               -0.5251254       -26.85172        -41.33595       -101.7939             -200               0             -200               0
1.73927               -0.5429562       -27.14426        -41.08798       -105.5727             -200               0             -200               0
1.74587               -0.5615953       -27.44082        -40.84455       -109.3575             -200               0             -200               0
1.75248               -0.5810671       -27.74126        -40.60546       -113.1459             -200               0             -200               0
1.75908               -0.6013931       -28.04549         -40.3705       -116.9357             -200               0             -200               0
1.76568               -0.6225914       -28.35338        -40.13942       -120.7251             -200               0             -200               0
1.77228               -0.6446778       -28.66484        -39.91196       -124.5121             -200               0             -200               0
1.77888               -0.6676651       -28.97975        -39.68784       -128.2953             -200               0             -200               0
1.78548                -0.691562       -29.29803        -39.46675       -132.0733             -200               0             -200               0
1.79208               -0.7163762       -29.61961        -39.24837       -135.8449             -200               0             -200               0
1.79868               -0.7421137       -29.94444        -39.03237       -139.6093             -200               0             -200               0
1.80528               -0.7687784       -30.27249        -38.81841       -143.3657             -200               0             -200               0
1.81188               -0.7963724       -30.60376        -38.60615       -147.1137             -200               0             -200               0
1.81848               -0.8248987       -30.93826        -38.39523       -150.8532             -200               0             -200               0
1.82508               -0.8543602       -31.27605         -38.1853       -154.5842             -200               0             -200               0
1.83168                -0.884761       -31.61722        -37.97602        -158.307             -200               0             -200               0
1.83828               -0.9161053       -31.96187        -37.76705       -162.0222             -200               0             -200               0
1.84488                -0.948402       -32.31016        -37.55807       -165.7305             -200               0             -200               0
1.85149                -0.981663       -32.66224        -37.34876        -169.433             -200               0             -200               0
1.85809                -1.015903       -33.01834        -37.13885       -173.1309             -200               0             -200               0
1.86469                -1.051142       -33.37867        -36.92805       -176.8258             -200               0             -200               0
1.87129                -1.087406       -33.74348        -36.71614        179.4809             -200               0             -200               0
1.87789                -1.124728       -34.11304         -36.5029        175.7872             -200               0             -200               0
1.88449                -1.163145       -34.48763        -36.28816        172.0912             -200               0             -200               0
1.89109                -1.202704       -34.86756        -36.07177        168.3909             -200               0             -200               0
1.89769                -1.243459       -35.25311        -35.85364         164.684             -200               0             -200               0
1.90429                 -1.28547       -35.64459        -35.63369        160.9685             -200               0             -200               0
1.91089                -1.328809       -36.04229        -35.41189        157.2419             -200               0             -200               0
1.91749                -1.373554       -36.44649        -35.18825        153.5022             -200               0             -200               0
1.92409                 -1.41979       -36.85744        -34.96282         149.747             -200               0             -200               0
1.93069                -1.467613       -37.27541        -34.73568        145.9743             -200               0             -200               0
1.93729                -1.517127       -37.70059        -34.50694        142.1819             -200               0             -200               0
1.94389                -1.568441       -38.13314        -34.27676         138.368             -200               0             -200               0
1.9505                 -1.621674       -38.57323        -34.04529        134.5307             -200               0             -200               0
1.9571                 -1.676952       -39.02093        -33.81275        130.6683             -200               0             -200               0
1.9637                 -1.734407       -39.47629        -33.57935        126.7793             -200               0             -200               0
1.9703                 -1.794174       -39.93931        -33.34533        122.8624             -200               0             -200               0
1.9769                 -1.856399        -40.4099        -33.11095        118.9163             -200               0             -200               0
1.9835                 -1.921228       -40.88796        -32.87646        114.9402             -200               0             -200               0
1.9901                 -1.988812       -41.37331        -32.64215        110.9331             -200               0             -200               0
1.9967                 -2.059308        -41.8657        -32.40829        106.8945             -200               0             -200               0
2.0033                 -2.132872       -42.36483        -32.17517        102.8238             -200               0             -200               0
2.0099                 -2.209667       -42.87033        -31.94304        98.72084             -200               0             -200               0
2.0165                 -2.289852       -43.38178         -31.7122        94.58538             -200               0             -200               0
2.0231                 -2.373592       -43.89869        -31.48292        90.41745             -200               0             -200               0
2.0297                 -2.461052        -44.4205        -31.25545        86.21717             -200               0             -200               0
2.0363                 -2.552397       -44.94662        -31.03006         81.9848             -200               0             -200               0
2.0429                  -2.64779       -45.47636        -30.80698        77.72073             -200               0             -200               0
2.0495                 -2.747398       -46.00902        -30.58645        73.42541             -200               0             -200               0
2.05611                -2.851389        -46.5438         -30.3687        69.09942             -200               0             -200               0
2.06271                -2.959926       -47.07989        -30.15394        64.74339             -200               0             -200               0
2.06931                -3.073178       -47.61638        -29.94236        60.35803             -200               0             -200               0
2.07591                -3.191312       -48.15234        -29.73415        55.94411             -200               0             -200               0
2.08251                -3.314497       -48.68677         -29.5295        51.50245             -200               0             -200               0
2.08911                -3.442904       -49.21865        -29.32856        47.03389             -200               0             -200               0
2.09571                -3.576705       -49.74686        -29.13148        42.53936             -200               0             -200               0
2.10231                -3.716077       -50.27027        -28.93841        38.01974             -200               0             -200               0
2.10891                -3.861199       -50.78765        -28.74948        33.47599             -200               0             -200               0
2.11551                -4.012258       -51.29772        -28.56481        28.90907             -200               0             -200               0
2.12211                -4.169445       -51.79917         -28.3845        24.31992             -200               0             -200               0
2.12871                -4.332957       -52.29056        -28.20866        19.70952             -200               0             -200               0
2.13531                -4.503001        -52.7704        -28.03738        15.07884             -200               0             -200               0
2.14191                -4.679794       -53.23711        -27.87074        10.42885             -200               0             -200               0
2.14851                -4.863567       -53.68897        -27.70882         5.76052             -200               0             -200               0
2.15512                -5.054557       -54.12419         -27.5517        1.074799             -200               0             -200               0
2.16172                -5.253022       -54.54077        -27.39941       -3.627358             -200               0             -200               0
2.16832                -5.459233       -54.93662        -27.25203       -8.345014             -200               0             -200               0
2.17492                -5.673479        -55.3094        -27.10961       -13.07724             -200               0             -200               0
2.18152                -5.896068       -55.65659        -26.97218       -17.82311             -200               0             -200               0
2.18812                -6.127329       -55.97537        -26.83979       -22.58172             -200               0             -200               0
2.19472                -6.367613       -56.26265        -26.71247       -27.35219             -200               0             -200               0
2.20132                -6.617294       -56.51499        -26.59025       -32.13363             -200               0             -200               0
2.20792                -6.876768       -56.72849        -26.47315       -36.92517             -200               0             -200               0
2.21452                -7.146455       -56.89883         -26.3612       -41.72596             -200               0             -200               0
2.22112                -7.426801       -57.02107        -26.25441       -46.53516             -200               0             -200               0
2.22772                -7.718266       -57.08963        -26.15281       -51.35194             -200               0             -200               0
2.23432                -8.021333       -57.09815         -26.0564       -56.17548             -200               0             -200               0
2.24092                -8.336495       -57.03935         -25.9652       -61.00497             -200               0             -200               0
2.24752                -8.664244       -56.90489        -25.87921       -65.83962             -200               0             -200               0
2.25413                -9.005062       -56.68518        -25.79844       -70.67864             -200               0             -200               0
2.26073                -9.359404       -56.36913        -25.72288       -75.52125             -200               0             -200               0
2.26733                -9.727665       -55.94401        -25.65255       -80.36669             -200               0             -200               0
2.27393                -10.11014       -55.39505        -25.58744       -85.21419             -200               0             -200               0
2.28053                -10.50699        -54.7052        -25.52755       -90.06299             -200               0             -200               0
2.28713                -10.91813       -53.85481        -25.47287       -94.91237             -200               0             -200               0
2.29373                -11.34316        -52.8213         -25.4234       -99.76155             -200               0             -200               0