! TOUCHSTONE file generated by CST MICROWAVE STUDIO
! Date and time: Sat Mar  8 13:54:47 2025
! Project name: non_fractured.cst
! Parameters = {B=2.5; D=160; F=15; Feed=2.85625; L=100; M=10; R=0.384908; S=1.5; Theta=270; length=57.125; wave=114.25}
! Header version: 2024
! Port assignment regex: !\s*Touchstone port\s*([0-9]+)\s*=\s*(CST MWS port|CST DES external port|CST DES block port)\s*(.+)\s* \(\"(.*)\"\)(\s*mode\s*([0-9]+))?.*
! Touchstone port assignment:
! Touchstone port 1 = CST MWS port 1 ("")
! Touchstone port 2 = CST MWS port 2 ("")
# GHz S DB R 50
1                    -0.01724792       -9.751868        -70.11637       -131.1369             -200               0             -200               0
1.00662               -0.0180759       -9.841931        -69.68733       -134.6882             -200               0             -200               0
1.01325              -0.01897754       -9.932319        -69.28948       -138.3188             -200               0             -200               0
1.01987              -0.01994608       -10.02299         -68.9218       -142.0052             -200               0             -200               0
1.02649              -0.02097303       -10.11389        -68.58322       -145.7263             -200               0             -200               0
1.03311              -0.02204864         -10.205        -68.27264       -149.4635             -200               0             -200               0
1.03974              -0.02316166       -10.29629        -67.98897       -153.1994             -200               0             -200               0
1.04636               -0.0243021       -10.38778        -67.73112        -156.918             -200               0             -200               0
1.05298              -0.02545702       -10.47945        -67.49797       -160.6042             -200               0             -200               0
1.0596               -0.02661767       -10.57134        -67.28835       -164.2435             -200               0             -200               0
1.06623              -0.02777029       -10.66348        -67.10107       -167.8216             -200               0             -200               0
1.07285               -0.0289069       -10.75592        -66.93482       -171.3247             -200               0             -200               0
1.07947              -0.03001812       -10.84873        -66.78821        -174.739             -200               0             -200               0
1.08609              -0.03109634       -10.94196        -66.65966       -178.0507             -200               0             -200               0
1.09272              -0.03213567        -11.0357        -66.54741        178.7536             -200               0             -200               0
1.09934              -0.03313258       -11.13005        -66.44946        175.6874             -200               0             -200               0
1.10596              -0.03408489       -11.22508        -66.36351        172.7634             -200               0             -200               0
1.11258              -0.03499248       -11.32089        -66.28693        169.9938             -200               0             -200               0
1.11921              -0.03585811       -11.41758         -66.2167        167.3894             -200               0             -200               0
1.12583              -0.03668576       -11.51523        -66.14942        164.9591             -200               0             -200               0
1.13245              -0.03748203       -11.61394        -66.08128        162.7092             -200               0             -200               0
1.13907              -0.03825573       -11.71378        -66.00808        160.6424             -200               0             -200               0
1.1457               -0.03901549       -11.81483        -65.92534         158.757             -200               0             -200               0
1.15232               -0.0397748       -11.91713        -65.82841        157.0459             -200               0             -200               0
1.15894              -0.04054396       -12.02076        -65.71264        155.4959             -200               0             -200               0
1.16556              -0.04133827       -12.12572        -65.57365        154.0872             -200               0             -200               0
1.17219              -0.04217136       -12.23207        -65.40759        152.7938             -200               0             -200               0
1.17881               -0.0430559       -12.33978        -65.21143        151.5842             -200               0             -200               0
1.18543              -0.04400646       -12.44887        -64.98317        150.4226             -200               0             -200               0
1.19205              -0.04503703        -12.5593        -64.72203        149.2711             -200               0             -200               0
1.19868              -0.04615746       -12.67105        -64.42847        148.0921             -200               0             -200               0
1.2053               -0.04738049       -12.78407        -64.10416          146.85             -200               0             -200               0
1.21192              -0.04871466       -12.89831        -63.75177        145.5138             -200               0             -200               0
1.21854              -0.05016716        -13.0137        -63.37477        144.0578             -200               0             -200               0
1.22517              -0.05174287       -13.13017        -62.97708        142.4629             -200               0             -200               0
1.23179              -0.05344633       -13.24765        -62.56285        140.7162             -200               0             -200               0
1.23841              -0.05527746       -13.36608        -62.13622        138.8107             -200               0             -200               0
1.24503              -0.05723499       -13.48537         -61.7011        136.7448             -200               0             -200               0
1.25166              -0.05931465       -13.60546        -61.26108        134.5209             -200               0             -200               0
1.25828              -0.06151272       -13.72629        -60.81933        132.1448             -200               0             -200               0
1.2649               -0.06381964        -13.8478         -60.3786        129.6246             -200               0             -200               0
1.27152              -0.06622751       -13.96996        -59.94121        126.9702             -200               0             -200               0
1.27815              -0.06872513       -14.09273        -59.50904        124.1921             -200               0             -200               0
1.28477              -0.07130154       -14.21611        -59.08363        121.3017             -200               0             -200               0
1.29139              -0.07394291       -14.34009        -58.66617          118.31             -200               0             -200               0
1.29801              -0.07663788       -14.46469        -58.25756        115.2283             -200               0             -200               0
1.30464              -0.07937305       -14.58994        -57.85847        112.0671             -200               0             -200               0
1.31126              -0.08213658       -14.71589        -57.46932        108.8366             -200               0             -200               0
1.31788              -0.08491732       -14.84262        -57.09039        105.5465             -200               0             -200               0
1.3245               -0.08770539       -14.97019        -56.72178        102.2058             -200               0             -200               0
1.33113              -0.09049193       -15.09871        -56.36349        98.82293             -200               0             -200               0
1.33775              -0.09327123       -15.22827        -56.01538        95.40572             -200               0             -200               0
1.34437              -0.09603862       -15.35899        -55.67725        91.96141             -200               0             -200               0
1.35099              -0.09879287       -15.49099        -55.34881        88.49667             -200               0             -200               0
1.35762               -0.1015339       -15.62439         -55.0297        85.01761             -200               0             -200               0
1.36424               -0.1042654       -15.75933        -54.71952        81.52985             -200               0             -200               0
1.37086               -0.1069934       -15.89592        -54.41779        78.03845             -200               0             -200               0
1.37748               -0.1097259       -16.03428        -54.12404        74.54802             -200               0             -200               0
1.38411                -0.112474       -16.17453        -53.83771        71.06265             -200               0             -200               0
1.39073               -0.1152515       -16.31677        -53.55824        67.58599             -200               0             -200               0
1.39735               -0.1180724        -16.4611        -53.28505        64.12118             -200               0             -200               0
1.40397               -0.1209526       -16.60759        -53.01751        60.67092             -200               0             -200               0
1.4106                -0.1239115       -16.75631        -52.75501        57.23745             -200               0             -200               0
1.41722               -0.1269672       -16.90732        -52.49689        53.82251             -200               0             -200               0
1.42384               -0.1301382       -17.06062        -52.24253        50.42741             -200               0             -200               0
1.43046               -0.1334428       -17.21626        -51.99127        47.05297             -200               0             -200               0
1.43709               -0.1369011       -17.37422        -51.74248        43.69956             -200               0             -200               0
1.44371               -0.1405293       -17.53449        -51.49554        40.36708             -200               0             -200               0
1.45033               -0.1443452       -17.69704        -51.24983        37.05501             -200               0             -200               0
1.45695               -0.1483616       -17.86183        -51.00479        33.76236             -200               0             -200               0
1.46358               -0.1525932        -18.0288        -50.75986        30.48777             -200               0             -200               0
1.4702                -0.1570491        -18.1979        -50.51455        27.22947             -200               0             -200               0
1.47682               -0.1617379       -18.36906         -50.2684        23.98537             -200               0             -200               0
1.48344               -0.1666657       -18.54222        -50.02101        20.75308             -200               0             -200               0
1.49007               -0.1718349        -18.7173        -49.77204        17.52993             -200               0             -200               0
1.49669                -0.177246       -18.89424         -49.5212        14.31307             -200               0             -200               0
1.50331                -0.182898       -19.07299        -49.26827        11.09951             -200               0             -200               0
1.50993               -0.1887858       -19.25351         -49.0131        7.886172             -200               0             -200               0
1.51656               -0.1949026       -19.43575        -48.75562         4.66996             -200               0             -200               0
1.52318                -0.201243       -19.61972        -48.49579        1.447814             -200               0             -200               0
1.5298                -0.2077961       -19.80539        -48.23367       -1.783222             -200               0             -200               0
1.53642               -0.2145525       -19.99279        -47.96934       -5.025964             -200               0             -200               0
1.54305               -0.2215021       -20.18195        -47.70296       -8.283028             -200               0             -200               0
1.54967               -0.2286338       -20.37294        -47.43474       -11.55679             -200               0             -200               0
1.55629               -0.2359387       -20.56583         -47.1649       -14.84937             -200               0             -200               0
1.56291               -0.2434081       -20.76073        -46.89371        -18.1626             -200               0             -200               0
1.56954               -0.2510352       -20.95774        -46.62148       -21.49798             -200               0             -200               0
1.57616               -0.2588159       -21.15701        -46.34852       -24.85672             -200               0             -200               0
1.58278               -0.2667466       -21.35868        -46.07515       -28.23971             -200               0             -200               0
1.5894                -0.2748287       -21.56291         -45.8017       -31.64752             -200               0             -200               0
1.59603               -0.2830663       -21.76989         -45.5285       -35.08044             -200               0             -200               0
1.60265               -0.2914659       -21.97979        -45.25587       -38.53847             -200               0             -200               0
1.60927               -0.3000389       -22.19279        -44.98411       -42.02133             -200               0             -200               0
1.61589               -0.3087995       -22.40909        -44.71352       -45.52853             -200               0             -200               0
1.62252               -0.3177661       -22.62886        -44.44436       -49.05934             -200               0             -200               0
1.62914               -0.3269597       -22.85227        -44.17689       -52.61286             -200               0             -200               0
1.63576               -0.3364055        -23.0795        -43.91132       -56.18801             -200               0             -200               0
1.64238               -0.3461311       -23.31069        -43.64786       -59.78357             -200               0             -200               0
1.64901               -0.3561695       -23.54597        -43.38667       -63.39822             -200               0             -200               0
1.65563               -0.3665503       -23.78547        -43.12788       -67.03055             -200               0             -200               0
1.66225               -0.3773105       -24.02927        -42.87162       -70.67906             -200               0             -200               0
1.66887               -0.3884851       -24.27746        -42.61796       -74.34223             -200               0             -200               0
1.6755                -0.4001127       -24.53009        -42.36695       -78.01852             -200               0             -200               0
1.68212               -0.4122273       -24.78719        -42.11861       -81.70637             -200               0             -200               0
1.68874               -0.4248678       -25.04876        -41.87295       -85.40426             -200               0             -200               0
1.69536               -0.4380704        -25.3148        -41.62992       -89.11068             -200               0             -200               0
1.70199               -0.4518685       -25.58527        -41.38948       -92.82419             -200               0             -200               0
1.70861               -0.4662937       -25.86013        -41.15155       -96.54341             -200               0             -200               0
1.71523               -0.4813781       -26.13932        -40.91601       -100.2671             -200               0             -200               0
1.72185               -0.4971499       -26.42276        -40.68275       -103.9939             -200               0             -200               0
1.72848               -0.5136326       -26.71039        -40.45162       -107.7229             -200               0             -200               0
1.7351                -0.5308486       -27.00211        -40.22246       -111.4531             -200               0             -200               0
1.74172               -0.5488179       -27.29786        -39.99509       -115.1835             -200               0             -200               0
1.74834                -0.567556       -27.59755        -39.76932       -118.9137             -200               0             -200               0
1.75497               -0.5870771       -27.90113        -39.54495       -122.6429             -200               0             -200               0
1.76159                -0.607391       -28.20854        -39.32176       -126.3708             -200               0             -200               0
1.76821               -0.6285071       -28.51975        -39.09954       -130.0972             -200               0             -200               0
1.77483                -0.650434       -28.83475        -38.87807       -133.8221             -200               0             -200               0
1.78146               -0.6731766       -29.15355        -38.65712       -137.5455             -200               0             -200               0
1.78808               -0.6967412       -29.47619        -38.43647       -141.2678             -200               0             -200               0
1.7947                -0.7211334       -29.80273         -38.2159       -144.9894             -200               0             -200               0
1.80132               -0.7463601       -30.13328        -37.99522       -148.7109             -200               0             -200               0
1.80795               -0.7724309       -30.46795        -37.77422       -152.4332             -200               0             -200               0
1.81457               -0.7993571        -30.8069        -37.55271       -156.1572             -200               0             -200               0
1.82119               -0.8271535       -31.15032        -37.33054       -159.8839             -200               0             -200               0
1.82781               -0.8558396        -31.4984        -37.10754       -163.6147             -200               0             -200               0
1.83444               -0.8854387       -31.85139        -36.88359       -167.3507             -200               0             -200               0
1.84106               -0.9159816       -32.20953        -36.65858       -171.0935             -200               0             -200               0
1.84768               -0.9475048        -32.5731        -36.43243       -174.8446             -200               0             -200               0
1.8543                  -0.98005       -32.94236        -36.20508       -178.6055             -200               0             -200               0
1.86093                -1.013669        -33.3176        -35.97649        177.6222             -200               0             -200               0
1.86755                 -1.04842       -33.69912        -35.74666        173.8367             -200               0             -200               0
1.87417                -1.084369       -34.08717        -35.51562        170.0366             -200               0             -200               0
1.88079                -1.121589       -34.48202         -35.2834        166.2201             -200               0             -200               0
1.88742                -1.160164       -34.88394        -35.05007        162.3856             -200               0             -200               0
1.89404                -1.200183       -35.29311        -34.81574        158.5317             -200               0             -200               0
1.90066                -1.241744       -35.70974        -34.58052        154.6568             -200               0             -200               0
1.90728                 -1.28495       -36.13398        -34.34454        150.7596             -200               0             -200               0
1.91391                -1.329915       -36.56595        -34.10796        146.8389             -200               0             -200               0
1.92053                -1.376755       -37.00568        -33.87096        142.8934             -200               0             -200               0
1.92715                -1.425593       -37.45321        -33.63372        138.9221             -200               0             -200               0
1.93377                -1.476556       -37.90848        -33.39644        134.9241             -200               0             -200               0
1.9404                 -1.529775       -38.37139        -33.15932        130.8986             -200               0             -200               0
1.94702                -1.585385       -38.84179         -32.9226        126.8448             -200               0             -200               0
1.95364                -1.643524       -39.31945        -32.68647        122.7623             -200               0             -200               0
1.96026                -1.704326       -39.80408        -32.45117        118.6506             -200               0             -200               0
1.96689                -1.767933       -40.29535        -32.21693        114.5094             -200               0             -200               0
1.97351                -1.834482       -40.79286        -31.98397        110.3386             -200               0             -200               0
1.98013                -1.904111       -41.29613        -31.75251        106.1381             -200               0             -200               0
1.98675                -1.976954       -41.80465        -31.52276        101.9078             -200               0             -200               0
1.99338                -2.053146       -42.31785        -31.29495        97.64803             -200               0             -200               0
2                      -2.132819       -42.83512        -31.06929        93.35894             -200               0             -200               0
2.00662                  -2.2161       -43.35578        -30.84596        89.04084             -200               0             -200               0
2.01325                -2.303115       -43.87912        -30.62517        84.69414             -200               0             -200               0
2.01987                -2.393984       -44.40441         -30.4071        80.31929             -200               0             -200               0
2.02649                -2.488827       -44.93085        -30.19193        75.91683             -200               0             -200               0
2.03311                -2.587758       -45.45764        -29.97983        71.48734             -200               0             -200               0
2.03974                 -2.69089       -45.98394        -29.77095        67.03144             -200               0             -200               0
2.04636                -2.798332       -46.50889        -29.56545         62.5498             -200               0             -200               0
2.05298                -2.910192       -47.03162        -29.36347        58.04313             -200               0             -200               0
2.0596                 -3.026577       -47.55124        -29.16515        53.51216             -200               0             -200               0
2.06623                -3.147592       -48.06683         -28.9706        48.95766             -200               0             -200               0
2.07285                -3.273343       -48.57748        -28.77995         44.3804             -200               0             -200               0
2.07947                -3.403938       -49.08227        -28.59329        39.78119             -200               0             -200               0
2.08609                -3.539488       -49.58025        -28.41075        35.16082             -200               0             -200               0
2.09272                -3.680109       -50.07047        -28.23239        30.52012             -200               0             -200               0
2.09934                -3.825918       -50.55196        -28.05832        25.85989             -200               0             -200               0
2.10596                -3.977044       -51.02373        -27.88862        21.18099             -200               0             -200               0
2.11258                -4.133625       -51.48478        -27.72334        16.48421             -200               0             -200               0
2.11921                -4.295804       -51.93403        -27.56257        11.77039             -200               0             -200               0
2.12583                -4.463741       -52.37039        -27.40636        7.040355             -200               0             -200               0
2.13245                -4.637609       -52.79272        -27.25478        2.294906             -200               0             -200               0
2.13907                -4.817597       -53.19977        -27.10786       -2.465141             -200               0             -200               0
2.1457                 -5.003912       -53.59022        -26.96566       -7.238985             -200               0             -200               0
2.15232                -5.196777       -53.96265        -26.82822       -12.02583             -200               0             -200               0
2.15894                -5.396444       -54.31547        -26.69557       -16.82489             -200               0             -200               0
2.16556                 -5.60318       -54.64695        -26.56776       -21.63539             -200               0             -200               0
2.17219                -5.817282       -54.95513         -26.4448       -26.45655             -200               0             -200               0
2.17881                -6.039072       -55.23785        -26.32674       -31.28762             -200               0             -200               0
2.18543                -6.268896       -55.49262        -26.21359       -36.12784             -200               0             -200               0
2.19205                -6.507132       -55.71665        -26.10538       -40.97646             -200               0             -200               0
2.19868                -6.754184       -55.90674        -26.00212       -45.83276             -200               0             -200               0
2.2053                 -7.010484       -56.05923        -25.90383       -50.69599             -200               0             -200               0
2.21192                -7.276492       -56.16993        -25.81053       -55.56546             -200               0             -200               0
2.21854                -7.552689       -56.23402        -25.72222       -60.44043             -200               0             -200               0
2.22517                -7.839583       -56.24593        -25.63892        -65.3202             -200               0             -200               0
2.23179                -8.137693       -56.19926        -25.56064       -70.20407             -200               0             -200               0
2.23841                -8.447545        -56.0866        -25.48738       -75.09135             -200               0             -200               0
2.24503                -8.769664        -55.8994        -25.41914       -79.98134             -200               0             -200               0
2.25166                -9.104549       -55.62778        -25.35594       -84.87337             -200               0             -200               0
2.25828                -9.452658       -55.26029        -25.29777       -89.76674             -200               0             -200               0
2.2649                 -9.814373       -54.78371        -25.24463       -94.66079             -200               0             -200               0
2.27152                -10.18995       -54.18276        -25.19653       -99.55483             -200               0             -200               0
2.27815                -10.57947       -53.43983        -25.15345       -104.4482             -200               0             -200               0
2.28477                -10.98276        -52.5347        -25.11541       -109.3402             -200               0             -200               0
2.29139                -11.39924       -51.44422        -25.08238       -114.2302             -200               0             -200               0
2.29801                -11.82785       -50.14222        -25.05437       -119.1175             -200               0             -200               0