! TOUCHSTONE file generated by CST MICROWAVE STUDIO
! Date and time: Sat Mar  8 13:55:11 2025
! Project name: non_fractured.cst
! Parameters = {B=2.5; D=160; F=5; Feed=2.85625; L=100; M=20; R=0.384908; S=2; Theta=180; length=57.125; wave=114.25}
! Header version: 2024
! Port assignment regex: !\s*Touchstone port\s*([0-9]+)\s*=\s*(CST MWS port|CST DES external port|CST DES block port)\s*(.+)\s* \(\"(.*)\"\)(\s*mode\s*([0-9]+))?.*
! Touchstone port assignment:
! Touchstone port 1 = CST MWS port 1 ("")
! Touchstone port 2 = CST MWS port 2 ("")
# GHz S DB R 50
1                    -0.01737312       -9.750881         -69.5306       -112.6251             -200               0             -200               0
1.0066               -0.01816283       -9.841028        -68.91953        -117.942             -200               0             -200               0
1.0132               -0.01904129       -9.931545        -68.36658       -123.2431             -200               0             -200               0
1.0198               -0.02000108       -10.02237        -67.86614       -128.5197             -200               0             -200               0
1.0264               -0.02103591       -10.11344        -67.41372       -133.7645             -200               0             -200               0
1.033                -0.02213644        -10.2047        -67.00562       -138.9705             -200               0             -200               0
1.0396               -0.02329163       -10.29611        -66.63879       -144.1312             -200               0             -200               0
1.0462               -0.02449108       -10.38766        -66.31071         -149.24             -200               0             -200               0
1.05281              -0.02572027       -10.47933        -66.01926       -154.2902             -200               0             -200               0
1.05941               -0.0269676       -10.57111        -65.76266       -159.2748             -200               0             -200               0
1.06601              -0.02822021       -10.66303        -65.53939       -164.1861             -200               0             -200               0
1.07261              -0.02946663       -10.75512        -65.34814       -169.0162             -200               0             -200               0
1.07921              -0.03069162       -10.84743        -65.18777       -173.7559             -200               0             -200               0
1.08581              -0.03188687       -10.94001        -65.05725       -178.3956             -200               0             -200               0
1.09241              -0.03304209       -11.03295        -64.95559         177.076             -200               0             -200               0
1.09901              -0.03415021       -11.12631        -64.88186         172.671             -200               0             -200               0
1.10561              -0.03520445        -11.2202        -64.83505        168.4031             -200               0             -200               0
1.11221              -0.03620133       -11.31472        -64.81406        164.2876             -200               0             -200               0
1.11881              -0.03713716       -11.40996        -64.81761        160.3417             -200               0             -200               0
1.12541              -0.03801545       -11.50604        -64.84413        156.5842             -200               0             -200               0
1.13201              -0.03883768       -11.60305        -64.89167        153.0357             -200               0             -200               0
1.13861              -0.03960985       -11.70111        -64.95772        149.7187             -200               0             -200               0
1.14521              -0.04033925        -11.8003        -65.03908        146.6567             -200               0             -200               0
1.15182              -0.04103441       -11.90071        -65.13168        143.8736             -200               0             -200               0
1.15842              -0.04170823       -12.00243        -65.23037        141.3925             -200               0             -200               0
1.16502              -0.04237292       -12.10552        -65.32876        139.2338             -200               0             -200               0
1.17162              -0.04304216       -12.21004        -65.41913        137.4122             -200               0             -200               0
1.17822               -0.0437321       -12.31601        -65.49246        135.9331             -200               0             -200               0
1.18482              -0.04445676       -12.42347         -65.5387        134.7892             -200               0             -200               0
1.19142              -0.04523233       -12.53243        -65.54726        133.9561             -200               0             -200               0
1.19802              -0.04607267       -12.64288        -65.50795        133.3897             -200               0             -200               0
1.20462              -0.04699448       -12.75479        -65.41201        133.0262             -200               0             -200               0
1.21122              -0.04800914       -12.86813        -65.25331        132.7849             -200               0             -200               0
1.21782              -0.04913042       -12.98287        -65.02926        132.5751             -200               0             -200               0
1.22442              -0.05036801       -13.09892        -64.74119         132.305             -200               0             -200               0
1.23102              -0.05172865       -13.21624        -64.39409         131.891             -200               0             -200               0
1.23762              -0.05322145       -13.33475        -63.99583        131.2648             -200               0             -200               0
1.24422              -0.05484805       -13.45436        -63.55603         130.378             -200               0             -200               0
1.25083               -0.0566121       -13.57501        -63.08486        129.2021             -200               0             -200               0
1.25743              -0.05851037       -13.69662         -62.5922        127.7263             -200               0             -200               0
1.26403              -0.06054076       -13.81911        -62.08694        125.9539             -200               0             -200               0
1.27063              -0.06269774       -13.94242        -61.57668        123.8986             -200               0             -200               0
1.27723              -0.06497484       -14.06649        -61.06768        121.5803             -200               0             -200               0
1.28383              -0.06736229       -14.19128        -60.56489        119.0223             -200               0             -200               0
1.29043              -0.06984939       -14.31676         -60.0721        116.2496             -200               0             -200               0
1.29703              -0.07242591       -14.44291        -59.59214         113.287             -200               0             -200               0
1.30363              -0.07507624       -14.56972        -59.12707        110.1581             -200               0             -200               0
1.31023               -0.0777908       -14.69722        -58.67829        106.8852             -200               0             -200               0
1.31683              -0.08055428       -14.82544        -58.24675        103.4891             -200               0             -200               0
1.32343              -0.08335718       -14.95442        -57.83298         99.9886             -200               0             -200               0
1.33003              -0.08618594       -15.08424        -57.43725         96.4009             -200               0             -200               0
1.33663              -0.08903144       -15.21497         -57.0596        92.74166             -200               0             -200               0
1.34323              -0.09188483       -15.34671         -56.6999        89.02516             -200               0             -200               0
1.34984              -0.09474111       -15.47957        -56.35788        85.26442             -200               0             -200               0
1.35644              -0.09759661       -15.61366         -56.0332        81.47134             -200               0             -200               0
1.36304                -0.100448       -15.74911        -55.72541        77.65693             -200               0             -200               0
1.36964               -0.1032994       -15.88604        -55.43402        73.83132             -200               0             -200               0
1.37624               -0.1061511       -16.02458        -55.15847        70.00399             -200               0             -200               0
1.38284               -0.1090128       -16.16486        -54.89815        66.18375             -200               0             -200               0
1.38944               -0.1118941       -16.30701         -54.6524        62.37892             -200               0             -200               0
1.39604               -0.1148049       -16.45112        -54.42053        58.59734             -200               0             -200               0
1.40264               -0.1177602       -16.59733        -54.20176        54.84641             -200               0             -200               0
1.40924               -0.1207757        -16.7457        -53.99529        51.13315             -200               0             -200               0
1.41584                -0.123871       -16.89633        -53.80024        47.46418             -200               0             -200               0
1.42244               -0.1270656       -17.04927        -53.61568        43.84574             -200               0             -200               0
1.42904               -0.1303767       -17.20457        -53.44059        40.28363             -200               0             -200               0
1.43564               -0.1338282       -17.36227         -53.2739         36.7832             -200               0             -200               0
1.44224               -0.1374385       -17.52235        -53.11442        33.34927             -200               0             -200               0
1.44884               -0.1412291       -17.68483        -52.96092        29.98604             -200               0             -200               0
1.45545               -0.1452172       -17.84967        -52.81205        26.69701             -200               0             -200               0
1.46205               -0.1494219       -18.01683        -52.66642        23.48484             -200               0             -200               0
1.46865               -0.1538592       -18.18625        -52.52254        20.35127             -200               0             -200               0
1.47525               -0.1585411       -18.35788        -52.37887        17.29693             -200               0             -200               0
1.48185               -0.1634794       -18.53163        -52.23384        14.32126             -200               0             -200               0
1.48845               -0.1686831       -18.70743        -52.08585        11.42239             -200               0             -200               0
1.49505                -0.174159       -18.88518        -51.93332        8.597041             -200               0             -200               0
1.50165               -0.1799063       -19.06481        -51.77472        5.840461             -200               0             -200               0
1.50825               -0.1859291       -19.24624        -51.60862        3.146457             -200               0             -200               0
1.51485               -0.1922218       -19.42939         -51.4337       0.5074368             -200               0             -200               0
1.52145               -0.1987794        -19.6142        -51.24884       -2.085471             -200               0             -200               0
1.52805               -0.2055945       -19.80063         -51.0531       -4.642214             -200               0             -200               0
1.53465               -0.2126564       -19.98863         -50.8458       -7.173569             -200               0             -200               0
1.54125               -0.2199542        -20.1782        -50.62652       -9.690832             -200               0             -200               0
1.54785               -0.2274746       -20.36935        -50.39512       -12.20549             -200               0             -200               0
1.55446               -0.2352047       -20.56211        -50.15172       -14.72886             -200               0             -200               0
1.56106               -0.2431308       -20.75652        -49.89673       -17.27177             -200               0             -200               0
1.56766               -0.2512395       -20.95267        -49.63076       -19.84424             -200               0             -200               0
1.57426               -0.2595195       -21.15066        -49.35466       -22.45524             -200               0             -200               0
1.58086               -0.2679594        -21.3506        -49.06941       -25.11251             -200               0             -200               0
1.58746               -0.2765522       -21.55266        -48.77616       -27.82244             -200               0             -200               0
1.59406               -0.2852919       -21.75699        -48.47608          -30.59             -200               0             -200               0
1.60066               -0.2941755       -21.96376        -48.17043       -33.41877             -200               0             -200               0
1.60726               -0.3032052       -22.17318        -47.86045         -36.311             -200               0             -200               0
1.61386               -0.3123841       -22.38545        -47.54736       -39.26772             -200               0             -200               0
1.62046               -0.3217239       -22.60079        -47.23231       -42.28883             -200               0             -200               0
1.62706               -0.3312369       -22.81941        -46.91638       -45.37326             -200               0             -200               0
1.63366               -0.3409411       -23.04151        -46.60058       -48.51912             -200               0             -200               0
1.64026               -0.3508585       -23.26732        -46.28581       -51.72387             -200               0             -200               0
1.64686               -0.3610142       -23.49701        -45.97286       -54.98439             -200               0             -200               0
1.65347               -0.3714393       -23.73079        -45.66242       -58.29717             -200               0             -200               0
1.66007               -0.3821661        -23.9688         -45.3551       -61.65837             -200               0             -200               0
1.66667               -0.3932318       -24.21121        -45.05138       -65.06397             -200               0             -200               0
1.67327               -0.4046766       -24.45813        -44.75167       -68.50981             -200               0             -200               0
1.67987               -0.4165404       -24.70966        -44.45626       -71.99168             -200               0             -200               0
1.68647               -0.4288663       -24.96588        -44.16538       -75.50539             -200               0             -200               0
1.69307               -0.4416964       -25.22683        -43.87917       -79.04679             -200               0             -200               0
1.69967               -0.4550765       -25.49253        -43.59771       -82.61185             -200               0             -200               0
1.70627               -0.4690471       -25.76295          -43.321       -86.19667             -200               0             -200               0
1.71287               -0.4836513       -26.03809        -43.04898       -89.79753             -200               0             -200               0
1.71947               -0.4989287       -26.31786        -42.78153       -93.41089             -200               0             -200               0
1.72607               -0.5149175       -26.60221        -42.51848       -97.03344             -200               0             -200               0
1.73267               -0.5316523       -26.89101        -42.25961       -100.6621             -200               0             -200               0
1.73927               -0.5491645       -27.18418        -42.00467        -104.294             -200               0             -200               0
1.74587               -0.5674828       -27.48158        -41.75335       -107.9267             -200               0             -200               0
1.75248               -0.5866312        -27.7831        -41.50531       -111.5579             -200               0             -200               0
1.75908               -0.6066303        -28.0886         -41.2602       -115.1856             -200               0             -200               0
1.76568               -0.6274962       -28.39797        -41.01761       -118.8082             -200               0             -200               0
1.77228               -0.6492441       -28.71108        -40.77714       -122.4244             -200               0             -200               0
1.77888               -0.6718828       -29.02786        -40.53836       -126.0333             -200               0             -200               0
1.78548               -0.6954192       -29.34821        -40.30083       -129.6342             -200               0             -200               0
1.79208               -0.7198576       -29.67208         -40.0641        -133.227             -200               0             -200               0
1.79868               -0.7451997       -29.99946        -39.82772       -136.8117             -200               0             -200               0
1.80528               -0.7714466       -30.33032        -39.59127       -140.3888             -200               0             -200               0
1.81188                -0.798599       -30.66472        -39.35431       -143.9592             -200               0             -200               0
1.81848               -0.8266583       -31.00272        -39.11645       -147.5241             -200               0             -200               0
1.82508               -0.8556259       -31.34444        -38.87729       -151.0849             -200               0             -200               0
1.83168               -0.8855065          -31.69         -38.6365       -154.6435             -200               0             -200               0
1.83828               -0.9163079       -32.03961        -38.39376        -158.202             -200               0             -200               0
1.84488               -0.9480407       -32.39345        -38.14881       -161.7627             -200               0             -200               0
1.85149               -0.9807225       -32.75179        -37.90142       -165.3282             -200               0             -200               0
1.85809                -1.014377        -33.1149        -37.65141       -168.9012             -200               0             -200               0
1.86469                -1.049031       -33.48307        -37.39868       -172.4845             -200               0             -200               0
1.87129                -1.084723       -33.85663        -37.14314        -176.081             -200               0             -200               0
1.87789                -1.121498        -34.2359         -36.8848       -179.6937             -200               0             -200               0
1.88449                 -1.15941       -34.62123        -36.62369        176.6746             -200               0             -200               0
1.89109                -1.198521       -35.01295         -36.3599         173.021             -200               0             -200               0
1.89769                -1.238904        -35.4114        -36.09357        169.3427             -200               0             -200               0
1.90429                -1.280641       -35.81691        -35.82489        165.6372             -200               0             -200               0
1.91089                -1.323823       -36.22976        -35.55409        161.9021             -200               0             -200               0
1.91749                 -1.36855       -36.65025        -35.28143        158.1352             -200               0             -200               0
1.92409                -1.414933       -37.07859        -35.00719        154.3345             -200               0             -200               0
1.93069                -1.463088         -37.515        -34.73171        150.4983             -200               0             -200               0
1.93729                -1.513144       -37.95961        -34.45531        146.6251             -200               0             -200               0
1.94389                -1.565233       -38.41252        -34.17835        142.7138             -200               0             -200               0
1.9505                 -1.619496       -38.87378        -33.90118        138.7632             -200               0             -200               0
1.9571                 -1.676079       -39.34336        -33.62417        134.7728             -200               0             -200               0
1.9637                 -1.735136       -39.82116        -33.34768         130.742             -200               0             -200               0
1.9703                 -1.796821       -40.30703        -33.07208        126.6706             -200               0             -200               0
1.9769                 -1.861291       -40.80074        -32.79771        122.5585             -200               0             -200               0
1.9835                 -1.928711       -41.30199        -32.52492        118.4059             -200               0             -200               0
1.9901                 -1.999242        -41.8104        -32.25404         114.213             -200               0             -200               0
1.9967                 -2.073048       -42.32554        -31.98539        109.9804             -200               0             -200               0
2.0033                 -2.150295       -42.84689        -31.71926        105.7086             -200               0             -200               0
2.0099                 -2.231144       -43.37388        -31.45594        101.3984             -200               0             -200               0
2.0165                 -2.315757       -43.90586         -31.1957        97.05064             -200               0             -200               0
2.0231                 -2.404295       -44.44211        -30.93879        92.66622             -200               0             -200               0
2.0297                 -2.496916       -44.98187        -30.68544        88.24613             -200               0             -200               0
2.0363                 -2.593775       -45.52432        -30.43587        83.79145             -200               0             -200               0
2.0429                 -2.695024       -46.06858        -30.19027        79.30327             -200               0             -200               0
2.0495                 -2.800814       -46.61372        -29.94883        74.78273             -200               0             -200               0
2.05611                -2.911293       -47.15876        -29.71172          70.231             -200               0             -200               0
2.06271                -3.026608        -47.7027        -29.47909        65.64927             -200               0             -200               0
2.06931                  -3.1469       -48.24447        -29.25107        61.03872             -200               0             -200               0
2.07591                -3.272313       -48.78299        -29.02779        56.40056             -200               0             -200               0
2.08251                -3.402987       -49.31711        -28.80937        51.73598             -200               0             -200               0
2.08911                -3.539067       -49.84568        -28.59591        47.04616             -200               0             -200               0
2.09571                -3.680694       -50.36751        -28.38749        42.33229             -200               0             -200               0
2.10231                -3.828015       -50.88134        -28.18419        37.59552             -200               0             -200               0
2.10891                -3.981178       -51.38592        -27.98609          32.837             -200               0             -200               0
2.11551                -4.140339       -51.87992        -27.79326        28.05785             -200               0             -200               0
2.12211                -4.305659       -52.36197        -27.60574        23.25919             -200               0             -200               0
2.12871                -4.477306       -52.83067        -27.42358        18.44208             -200               0             -200               0
2.13531                 -4.65546       -53.28453        -27.24682         13.6076             -200               0             -200               0
2.14191                -4.840314       -53.72199         -27.0755         8.75678             -200               0             -200               0
2.14851                -5.032071       -54.14138        -26.90965        3.890631             -200               0             -200               0
2.15512                -5.230955       -54.54096         -26.7493      -0.9898475             -200               0             -200               0
2.16172                -5.437202       -54.91881        -26.59445       -5.883692             -200               0             -200               0
2.16832                -5.651074       -55.27288        -26.44514       -10.78995             -200               0             -200               0
2.17492                -5.872852        -55.6009        -26.30137        -15.7077             -200               0             -200               0
2.18152                 -6.10284       -55.90039        -26.16316       -20.63604             -200               0             -200               0
2.18812                 -6.34137       -56.16859        -26.03051       -25.57408             -200               0             -200               0
2.19472                  -6.5888       -56.40241        -25.90342       -30.52095             -200               0             -200               0
2.20132                -6.845516       -56.59836        -25.78189       -35.47581             -200               0             -200               0
2.20792                -7.111933       -56.75252        -25.66594       -40.43783             -200               0             -200               0
2.21452                -7.388491       -56.86038        -25.55554       -45.40618             -200               0             -200               0
2.22112                -7.675664       -56.91683        -25.45071       -50.38008             -200               0             -200               0
2.22772                -7.973941       -56.91598        -25.35143       -55.35874             -200               0             -200               0
2.23432                -8.283835       -56.85107        -25.25769       -60.34137             -200               0             -200               0
2.24092                -8.605866       -56.71427        -25.16949       -65.32722             -200               0             -200               0
2.24752                -8.940554       -56.49656        -25.08683       -70.31553             -200               0             -200               0
2.25413                -9.288397       -56.18743        -25.00968       -75.30557             -200               0             -200               0
2.26073                 -9.64985       -55.77472        -24.93804       -80.29661             -200               0             -200               0
2.26733                -10.02528       -55.24434        -24.87189        -85.2879             -200               0             -200               0
2.27393                -10.41494       -54.57988        -24.81122       -90.27874             -200               0             -200               0
2.28053                -10.81886       -53.76239        -24.75603       -95.26842             -200               0             -200               0
2.28713                 -11.2368       -52.76998        -24.70628       -100.2562             -200               0             -200               0
2.29373                -11.66806       -51.57754        -24.66197       -105.2414             -200               0             -200               0