! TOUCHSTONE file generated by CST MICROWAVE STUDIO
! Date and time: Sat Mar  8 13:55:43 2025
! Project name: non_fractured.cst
! Parameters = {B=2.5; D=160; F=5; Feed=2.85625; L=100; M=30; R=0.384908; S=1; Theta=0; length=57.125; wave=114.25}
! Header version: 2024
! Port assignment regex: !\s*Touchstone port\s*([0-9]+)\s*=\s*(CST MWS port|CST DES external port|CST DES block port)\s*(.+)\s* \(\"(.*)\"\)(\s*mode\s*([0-9]+))?.*
! Touchstone port assignment:
! Touchstone port 1 = CST MWS port 1 ("")
! Touchstone port 2 = CST MWS port 2 ("")
# GHz S DB R 50
1                    -0.01867341       -9.752454        -70.43216       -128.3214             -200               0             -200               0
1.0066               -0.01949031       -9.841631        -69.80218       -132.8154             -200               0             -200               0
1.0132               -0.02037449       -9.931172        -69.22677       -137.4074             -200               0             -200               0
1.0198               -0.02131965       -10.02103        -68.70119       -142.0693             -200               0             -200               0
1.0264               -0.02231875       -10.11117        -68.22148       -146.7786             -200               0             -200               0
1.033                -0.02336503       -10.20156         -67.7843       -151.5172             -200               0             -200               0
1.0396               -0.02444941       -10.29218        -67.38685       -156.2693             -200               0             -200               0
1.0462               -0.02556204       -10.38303        -67.02673       -161.0217             -200               0             -200               0
1.05281              -0.02669316        -10.4741         -66.7019       -165.7624             -200               0             -200               0
1.05941              -0.02783271       -10.56542        -66.41063       -170.4804             -200               0             -200               0
1.06601              -0.02897187       -10.65701         -66.1514       -175.1654             -200               0             -200               0
1.07261              -0.03009989        -10.7489        -65.92294       -179.8073             -200               0             -200               0
1.07921               -0.0312103       -10.84115        -65.72408        175.6039             -200               0             -200               0
1.08581              -0.03229433       -10.93382        -65.55381        171.0784             -200               0             -200               0
1.09241              -0.03334699       -11.02696        -65.41122        166.6267             -200               0             -200               0
1.09901              -0.03436309       -11.12066        -65.29541        162.2598             -200               0             -200               0
1.10561               -0.0353404       -11.21499        -65.20553        157.9898             -200               0             -200               0
1.11221               -0.0362779       -11.31004        -65.14071        153.8292             -200               0             -200               0
1.11881              -0.03717623       -11.40589        -65.09998         149.792             -200               0             -200               0
1.12541              -0.03803704       -11.50262        -65.08225        145.8932             -200               0             -200               0
1.13201              -0.03886603       -11.60032        -65.08625         142.149             -200               0             -200               0
1.13861               -0.0396681       -11.69905        -65.11042        138.5771             -200               0             -200               0
1.14521              -0.04045234       -11.79889         -65.1528        135.1963             -200               0             -200               0
1.15182              -0.04122598       -11.89991        -65.21097        132.0265             -200               0             -200               0
1.15842              -0.04199974       -12.00215        -65.28188        129.0881             -200               0             -200               0
1.16502              -0.04278664       -12.10566        -65.36172        126.4015             -200               0             -200               0
1.17162              -0.04359535       -12.21047         -65.4458        123.9856             -200               0             -200               0
1.17822              -0.04444017        -12.3166        -65.52841        121.8563             -200               0             -200               0
1.18482              -0.04533315       -12.42405        -65.60283        120.0246             -200               0             -200               0
1.19142              -0.04628669       -12.53283        -65.66134        118.4933             -200               0             -200               0
1.19802               -0.0473101       -12.64291        -65.69548        117.2545             -200               0             -200               0
1.20462              -0.04841433       -12.75427        -65.69647        116.2869             -200               0             -200               0
1.21122              -0.04961051       -12.86688        -65.65586        115.5536             -200               0             -200               0
1.21782              -0.05090459       -12.98068        -65.56638        115.0024             -200               0             -200               0
1.22442              -0.05230389       -13.09563        -65.42273        114.5678             -200               0             -200               0
1.23102              -0.05381394       -13.21166        -65.22231        114.1759             -200               0             -200               0
1.23762              -0.05543495       -13.32874        -64.96556        113.7504             -200               0             -200               0
1.24422              -0.05717014       -13.44678        -64.65586        113.2201             -200               0             -200               0
1.25083              -0.05901608       -13.56574        -64.29905        112.5245             -200               0             -200               0
1.25743              -0.06097361       -13.68556        -63.90263        111.6174             -200               0             -200               0
1.26403               -0.0630344        -13.8062        -63.47491        110.4685             -200               0             -200               0
1.27063              -0.06519347       -13.92761        -63.02423        109.0622             -200               0             -200               0
1.27723              -0.06744361       -14.04977        -62.55842        107.3956             -200               0             -200               0
1.28383              -0.06977758       -14.17265        -62.08444        105.4754             -200               0             -200               0
1.29043              -0.07218168       -14.29624        -61.60818        103.3154             -200               0             -200               0
1.29703               -0.0746489       -14.42056        -61.13448        100.9333             -200               0             -200               0
1.30363              -0.07716764       -14.54562        -60.66721        98.34938             -200               0             -200               0
1.31023              -0.07972796       -14.67145        -60.20934        95.58468             -200               0             -200               0
1.31683              -0.08231884        -14.7981        -59.76311        92.66012             -200               0             -200               0
1.32343              -0.08493326       -14.92564        -59.33013        89.59581             -200               0             -200               0
1.33003              -0.08756157       -15.05413        -58.91155        86.41078             -200               0             -200               0
1.33663              -0.09019689       -15.18366        -58.50808        83.12274             -200               0             -200               0
1.34323              -0.09283362       -15.31433        -58.12015        79.74806             -200               0             -200               0
1.34984              -0.09547154       -15.44623        -57.74792        76.30178             -200               0             -200               0
1.35644               -0.0981064       -15.57947        -57.39136        72.79772             -200               0             -200               0
1.36304               -0.1007414       -15.71417         -57.0503        69.24857             -200               0             -200               0
1.36964               -0.1033801       -15.85044        -56.72442        65.66595             -200               0             -200               0
1.37624               -0.1060264       -15.98838        -56.41331        62.06057             -200               0             -200               0
1.38284               -0.1086875       -16.12812        -56.11647        58.44233             -200               0             -200               0
1.38944               -0.1113751       -16.26974        -55.83335        54.82032             -200               0             -200               0
1.39604               -0.1141012       -16.41336        -55.56329          51.203             -200               0             -200               0
1.40264               -0.1168784       -16.55904        -55.30561        47.59818             -200               0             -200               0
1.40924               -0.1197205       -16.70688        -55.05954         44.0131             -200               0             -200               0
1.41584               -0.1226459       -16.85692        -54.82428        40.45442             -200               0             -200               0
1.42244               -0.1256688       -17.00923        -54.59894        36.92828             -200               0             -200               0
1.42904               -0.1288094       -17.16383         -54.3826        33.44023             -200               0             -200               0
1.43564               -0.1320811       -17.32075        -54.17427        29.99528             -200               0             -200               0
1.44224               -0.1355042       -17.47999         -53.9729        26.59782             -200               0             -200               0
1.44884               -0.1390941       -17.64155        -53.77738        23.25159             -200               0             -200               0
1.45545               -0.1428646       -17.80541        -53.58657         19.9596             -200               0             -200               0
1.46205               -0.1468323       -17.97154        -53.39925        16.72413             -200               0             -200               0
1.46865               -0.1510066       -18.13991        -53.21418        13.54656             -200               0             -200               0
1.47525               -0.1554003       -18.31046        -53.03011         10.4274             -200               0             -200               0
1.48185               -0.1600232       -18.48315        -52.84574        7.366154             -200               0             -200               0
1.48845               -0.1648783       -18.65793         -52.6598        4.361313             -200               0             -200               0
1.49505               -0.1699725       -18.83474        -52.47104        1.410298             -200               0             -200               0
1.50165               -0.1753086       -19.01354        -52.27829       -1.490541             -200               0             -200               0
1.50825               -0.1808854       -19.19427        -52.08041       -4.345903             -200               0             -200               0
1.51485               -0.1867015       -19.37691         -51.8764       -7.161475             -200               0             -200               0
1.52145               -0.1927541       -19.56142        -51.66538       -9.943837             -200               0             -200               0
1.52805               -0.1990373        -19.7478        -51.44661       -12.70031             -200               0             -200               0
1.53465               -0.2055457       -19.93604        -51.21956       -15.43882             -200               0             -200               0
1.54125               -0.2122724       -20.12615        -50.98384       -18.16766             -200               0             -200               0
1.54785               -0.2192107       -20.31818        -50.73929        -20.8953             -200               0             -200               0
1.55446               -0.2263517       -20.51216        -50.48592       -23.63013             -200               0             -200               0
1.56106               -0.2336895       -20.70817        -50.22394       -26.38029             -200               0             -200               0
1.56766               -0.2412184       -20.90628        -49.95374       -29.15343             -200               0             -200               0
1.57426               -0.2489331       -21.10661        -49.67585       -31.95655             -200               0             -200               0
1.58086               -0.2568301       -21.30927        -49.39092       -34.79585             -200               0             -200               0
1.58746                -0.264908       -21.51438        -49.09973       -37.67666             -200               0             -200               0
1.59406               -0.2731697        -21.7221        -48.80313       -40.60334             -200               0             -200               0
1.60066               -0.2816171       -21.93257          -48.502       -43.57928             -200               0             -200               0
1.60726               -0.2902591       -22.14596        -48.19727       -46.60692             -200               0             -200               0
1.61386                -0.299105       -22.36243        -47.88985       -49.68778             -200               0             -200               0
1.62046               -0.3081684       -22.58216        -47.58064       -52.82251             -200               0             -200               0
1.62706               -0.3174651       -22.80529         -47.2705       -56.01102             -200               0             -200               0
1.63366               -0.3270146       -23.03201        -46.96024       -59.25249             -200               0             -200               0
1.64026               -0.3368418       -23.26246        -46.65062       -62.54554             -200               0             -200               0
1.64686               -0.3469698       -23.49678        -46.34232       -65.88828             -200               0             -200               0
1.65347               -0.3574284       -23.73512        -46.03596       -69.27841             -200               0             -200               0
1.66007               -0.3682481       -23.97758        -45.73209       -72.71328             -200               0             -200               0
1.66667               -0.3794606       -24.22428        -45.43117       -76.19002             -200               0             -200               0
1.67327               -0.3911022       -24.47528        -45.13361       -79.70555             -200               0             -200               0
1.67987               -0.4032075       -24.73066        -44.83975       -83.25668             -200               0             -200               0
1.68647               -0.4158099       -24.99045        -44.54984       -86.84015             -200               0             -200               0
1.69307               -0.4289497       -25.25469        -44.26408       -90.45267             -200               0             -200               0
1.69967                 -0.44266       -25.52337        -43.98263       -94.09097             -200               0             -200               0
1.70627               -0.4569771       -25.79649        -43.70556       -97.75182             -200               0             -200               0
1.71287               -0.4719358       -26.07402         -43.4329       -101.4321             -200               0             -200               0
1.71947                -0.487567       -26.35591        -43.16465       -105.1287             -200               0             -200               0
1.72607               -0.5039038        -26.6421        -42.90074       -108.8388             -200               0             -200               0
1.73267               -0.5209727       -26.93254        -42.64106       -112.5596             -200               0             -200               0
1.73927               -0.5388016       -27.22713        -42.38548       -116.2884             -200               0             -200               0
1.74587               -0.5574132       -27.52582        -42.13381       -120.0229             -200               0             -200               0
1.75248               -0.5768308       -27.82852        -41.88584       -123.7607             -200               0             -200               0
1.75908               -0.5970726       -28.13516        -41.64134       -127.4999             -200               0             -200               0
1.76568                -0.618156       -28.44568        -41.40003       -131.2387             -200               0             -200               0
1.77228               -0.6400956       -28.76001        -41.16161       -134.9754             -200               0             -200               0
1.77888               -0.6629053       -29.07812         -40.9258       -138.7086             -200               0             -200               0
1.78548               -0.6865946       -29.39998        -40.69224       -142.4374             -200               0             -200               0
1.79208               -0.7111758       -29.72558        -40.46061       -146.1608             -200               0             -200               0
1.79868                 -0.73666       -30.05493        -40.23055       -149.8783             -200               0             -200               0
1.80528               -0.7630563       -30.38807         -40.0017       -153.5894             -200               0             -200               0
1.81188               -0.7903754       -30.72507        -39.77372       -157.2943             -200               0             -200               0
1.81848                -0.818631       -31.06599        -39.54625       -160.9931             -200               0             -200               0
1.82508               -0.8478368       -31.41094        -39.31894       -164.6864             -200               0             -200               0
1.83168               -0.8780096       -31.76006        -39.09146       -168.3748             -200               0             -200               0
1.83828               -0.9091709       -32.11349        -38.86349       -172.0594             -200               0             -200               0
1.84488               -0.9413446       -32.47141        -38.63473       -175.7415             -200               0             -200               0
1.85149               -0.9745585       -32.83401        -38.40491       -179.4225             -200               0             -200               0
1.85809                -1.008848       -33.20148        -38.17379        176.8959             -200               0             -200               0
1.86469                -1.044253       -33.57404        -37.94116        173.2118             -200               0             -200               0
1.87129                -1.080818        -33.9519        -37.70683        169.5231             -200               0             -200               0
1.87789                -1.118594       -34.33529        -37.47067        165.8278             -200               0             -200               0
1.88449                -1.157642       -34.72442        -37.23258        162.1237             -200               0             -200               0
1.89109                -1.198025       -35.11951        -36.99249        158.4083             -200               0             -200               0
1.89769                -1.239816       -35.52076         -36.7504        154.6795             -200               0             -200               0
1.90429                -1.283092       -35.92834         -36.5063        150.9348             -200               0             -200               0
1.91089                 -1.32794       -36.34241        -36.26028        147.1721             -200               0             -200               0
1.91749                -1.374451       -36.76311        -36.01241        143.3892             -200               0             -200               0
1.92409                -1.422722       -37.19053        -35.76284        139.5838             -200               0             -200               0
1.93069                -1.472856       -37.62476        -35.51173        135.7541             -200               0             -200               0
1.93729                -1.524962        -38.0658        -35.25926        131.8982             -200               0             -200               0
1.94389                -1.579154       -38.51365        -35.00567        128.0145             -200               0             -200               0
1.9505                 -1.635548       -38.96825        -34.75117        124.1013             -200               0             -200               0
1.9571                 -1.694266        -39.4295        -34.49604        120.1575             -200               0             -200               0
1.9637                 -1.755432       -39.89724        -34.24055        116.1818             -200               0             -200               0
1.9703                 -1.819173       -40.37128        -33.98497        112.1734             -200               0             -200               0
1.9769                 -1.885619       -40.85136        -33.72959        108.1315             -200               0             -200               0
1.9835                 -1.954898       -41.33718        -33.47471        104.0554             -200               0             -200               0
1.9901                 -2.027144       -41.82841        -33.22062         99.9449             -200               0             -200               0
1.9967                 -2.102487       -42.32464        -32.96761        95.79967             -200               0             -200               0
2.0033                 -2.181061       -42.82544        -32.71596        91.61967             -200               0             -200               0
2.0099                 -2.262998       -43.33033        -32.46595          87.405             -200               0             -200               0
2.0165                 -2.348429       -43.83878        -32.21785        83.15587             -200               0             -200               0
2.0231                 -2.437489       -44.35021        -31.97192        78.87263             -200               0             -200               0
2.0297                 -2.530306       -44.86403        -31.72842        74.55575             -200               0             -200               0
2.0363                 -2.627014       -45.37961        -31.48757        70.20578             -200               0             -200               0
2.0429                 -2.727745       -45.89627         -31.2496        65.82336             -200               0             -200               0
2.0495                 -2.832628       -46.41329        -31.01473        61.40922             -200               0             -200               0
2.05611                  -2.9418       -46.92995        -30.78314        56.96414             -200               0             -200               0
2.06271                -3.055391       -47.44549        -30.55504        52.48896             -200               0             -200               0
2.06931                -3.173541        -47.9591        -30.33059        47.98457             -200               0             -200               0
2.07591                -3.296387       -48.46997        -30.10995        43.45188             -200               0             -200               0
2.08251                -3.424071       -48.97724        -29.89327        38.89186             -200               0             -200               0
2.08911                -3.556742       -49.48001        -29.68069        34.30546             -200               0             -200               0
2.09571                -3.694551       -49.97737        -29.47234        29.69369             -200               0             -200               0
2.10231                -3.837659       -50.46837        -29.26832        25.05752             -200               0             -200               0
2.10891                -3.986234       -50.95196        -29.06875        20.39796             -200               0             -200               0
2.11551                -4.140452       -51.42713        -28.87371        15.71603             -200               0             -200               0
2.12211                -4.300503       -51.89272         -28.6833         11.0127             -200               0             -200               0
2.12871                -4.466586       -52.34754        -28.49759        6.288987             -200               0             -200               0
2.13531                -4.638917       -52.79031        -28.31665        1.545865             -200               0             -200               0
2.14191                -4.817726       -53.21964        -28.14055       -3.215691             -200               0             -200               0
2.14851                -5.003257       -53.63403        -27.96934       -7.994718             -200               0             -200               0
2.15512                -5.195777       -54.03183        -27.80306       -12.79027             -200               0             -200               0
2.16172                -5.395571       -54.41122        -27.64177        -17.6014             -200               0             -200               0
2.16832                -5.602944       -54.77019         -27.4855       -22.42721             -200               0             -200               0
2.17492                -5.818228        -55.1065        -27.33428       -27.26678             -200               0             -200               0
2.18152                -6.041773       -55.41765        -27.18815       -32.11923             -200               0             -200               0
2.18812                 -6.27396       -55.70081        -27.04712       -36.98368             -200               0             -200               0
2.19472                -6.515189       -55.95278        -26.91122       -41.85928             -200               0             -200               0
2.20132                -6.765893       -56.16997        -26.78046        -46.7452             -200               0             -200               0
2.20792                -7.026525       -56.34825        -26.65486        -51.6406             -200               0             -200               0
2.21452                -7.297563       -56.48295        -26.53443       -56.54468             -200               0             -200               0
2.22112                -7.579507        -56.5687        -26.41918       -61.45664             -200               0             -200               0
2.22772                -7.872876       -56.59937        -26.30911        -66.3757             -200               0             -200               0
2.23432                -8.178199        -56.5679        -26.20422       -71.30109             -200               0             -200               0
2.24092                -8.496008       -56.46618        -26.10452       -76.23205             -200               0             -200               0
2.24752                -8.826824       -56.28487           -26.01       -81.16785             -200               0             -200               0
2.25413                -9.171138       -56.01317        -25.92067       -86.10775             -200               0             -200               0
2.26073                -9.529387       -55.63864        -25.83652       -91.05103             -200               0             -200               0
2.26733                -9.901915       -55.14691        -25.75754       -95.99696             -200               0             -200               0
2.27393                -10.28892       -54.52139        -25.68372       -100.9449             -200               0             -200               0
2.28053                 -10.6904       -53.74295        -25.61506        -105.894             -200               0             -200               0
2.28713                -11.10602       -52.78967        -25.55156       -110.8437             -200               0             -200               0
2.29373                -11.53504       -51.63651        -25.49318       -115.7934             -200               0             -200               0