! TOUCHSTONE file generated by CST MICROWAVE STUDIO
! Date and time: Sat Mar  8 13:54:39 2025
! Project name: non_fractured.cst
! Parameters = {B=2.5; D=160; F=10; Feed=2.85625; L=100; M=10; R=0.384908; S=1; Theta=270; length=57.125; wave=114.25}
! Header version: 2024
! Port assignment regex: !\s*Touchstone port\s*([0-9]+)\s*=\s*(CST MWS port|CST DES external port|CST DES block port)\s*(.+)\s* \(\"(.*)\"\)(\s*mode\s*([0-9]+))?.*
! Touchstone port assignment:
! Touchstone port 1 = CST MWS port 1 ("")
! Touchstone port 2 = CST MWS port 2 ("")
# GHz S DB R 50
1                    -0.01737614       -9.781046        -69.00089       -118.2966             -200               0             -200               0
1.0066               -0.01797962       -9.871196        -68.48664       -123.2398             -200               0             -200               0
1.0132               -0.01866237       -9.961907        -68.02324        -128.214             -200               0             -200               0
1.0198               -0.01942304       -10.05312        -67.60702       -133.2032             -200               0             -200               0
1.0264               -0.02025875       -10.14478        -67.23499       -138.1939             -200               0             -200               0
1.033                -0.02116599       -10.23683        -66.90469       -143.1743             -200               0             -200               0
1.0396               -0.02213908       -10.32921        -66.61413       -148.1334             -200               0             -200               0
1.0462               -0.02316881       -10.42191        -66.36172        -153.061             -200               0             -200               0
1.05281              -0.02424704       -10.51488        -66.14617        -157.947             -200               0             -200               0
1.05941              -0.02536513        -10.6081        -65.96648       -162.7812             -200               0             -200               0
1.06601              -0.02651205       -10.70157        -65.82189       -167.5528             -200               0             -200               0
1.07261              -0.02767703       -10.79529        -65.71185       -172.2505             -200               0             -200               0
1.07921              -0.02885031       -10.88928        -65.63595       -176.8617             -200               0             -200               0
1.08581              -0.03002131       -10.98358        -65.59396        178.6274             -200               0             -200               0
1.09241              -0.03117858       -11.07822        -65.58573        174.2326             -200               0             -200               0
1.09901              -0.03231478       -11.17326        -65.61116        169.9718             -200               0             -200               0
1.10561              -0.03342077       -11.26876        -65.67016         165.866             -200               0             -200               0
1.11221              -0.03449287       -11.36481        -65.76253        161.9391             -200               0             -200               0
1.11881               -0.0355227       -11.46148        -65.88789        158.2195             -200               0             -200               0
1.12541              -0.03651074       -11.55887        -66.04548        154.7401             -200               0             -200               0
1.13201              -0.03745404       -11.65706        -66.23393        151.5394             -200               0             -200               0
1.13861              -0.03835471       -11.75616        -66.45098        148.6619             -200               0             -200               0
1.14521              -0.03921542       -11.85625        -66.69295        146.1584             -200               0             -200               0
1.15182              -0.04004193       -11.95743        -66.95424        144.0851             -200               0             -200               0
1.15842              -0.04084123       -12.05979         -67.2265        142.5016             -200               0             -200               0
1.16502              -0.04162346        -12.1634        -67.49785        141.4658             -200               0             -200               0
1.17162              -0.04239964       -12.26835         -67.7521        141.0252             -200               0             -200               0
1.17822              -0.04317908       -12.37467        -67.96847        141.2036             -200               0             -200               0
1.18482               -0.0439797       -12.48244        -68.12237        141.9833             -200               0             -200               0
1.19142              -0.04481297       -12.59167        -68.18787        143.2879             -200               0             -200               0
1.19802              -0.04569409        -12.7024        -68.14197        144.9735             -200               0             -200               0
1.20462              -0.04663763       -12.81463        -67.96989        146.8379             -200               0             -200               0
1.21122              -0.04765866       -12.92835        -67.66902        148.6508             -200               0             -200               0
1.21782              -0.04877071       -13.04354        -67.24966        150.1953             -200               0             -200               0
1.22442               -0.0499872       -13.16017        -66.73203        151.3041             -200               0             -200               0
1.23102              -0.05131993       -13.27819        -66.14119        151.8767             -200               0             -200               0
1.23762              -0.05277854       -13.39754        -65.50222        151.8761             -200               0             -200               0
1.24422              -0.05437189       -13.51815        -64.83705        151.3134             -200               0             -200               0
1.25083              -0.05610659       -13.63997        -64.16314        150.2298             -200               0             -200               0
1.25743              -0.05798578        -13.7629        -63.49344        148.6812             -200               0             -200               0
1.26403              -0.06001225       -13.88688        -62.83699        146.7281             -200               0             -200               0
1.27063              -0.06218453       -14.01182        -62.19983         144.429             -200               0             -200               0
1.27723              -0.06450055       -14.13765        -61.58572        141.8376             -200               0             -200               0
1.28383              -0.06695549       -14.26431        -60.99679        139.0017             -200               0             -200               0
1.29043              -0.06954214       -14.39172        -60.43406        135.9627             -200               0             -200               0
1.29703              -0.07225127       -14.51986        -59.89781        132.7567             -200               0             -200               0
1.30363              -0.07507321       -14.64867        -59.38777        129.4145             -200               0             -200               0
1.31023              -0.07799608       -14.77814        -58.90338        125.9628             -200               0             -200               0
1.31683              -0.08100696       -14.90826        -58.44382        122.4246             -200               0             -200               0
1.32343              -0.08409254       -15.03904        -58.00817        118.8198             -200               0             -200               0
1.33003              -0.08724072       -15.17051        -57.59543        115.1661             -200               0             -200               0
1.33663              -0.09043827        -15.3027        -57.20454        111.4788             -200               0             -200               0
1.34323              -0.09367346       -15.43569        -56.83441        107.7717             -200               0             -200               0
1.34984              -0.09693388       -15.56954        -56.48392        104.0569             -200               0             -200               0
1.35644               -0.1002126       -15.70436        -56.15196        100.3455             -200               0             -200               0
1.36304                  -0.1035       -15.84023        -55.83739        96.64763             -200               0             -200               0
1.36964               -0.1067923       -15.97728        -55.53905        92.97234             -200               0             -200               0
1.37624               -0.1100857       -16.11564        -55.25574        89.32798             -200               0             -200               0
1.38284                 -0.11338       -16.25542        -54.98625        85.72218             -200               0             -200               0
1.38944               -0.1166789       -16.39676        -54.72932        82.16187             -200               0             -200               0
1.39604               -0.1199863        -16.5398        -54.48364        78.65329             -200               0             -200               0
1.40264                -0.123311       -16.68465        -54.24785        75.20196             -200               0             -200               0
1.40924               -0.1266639       -16.83146        -54.02053        71.81267             -200               0             -200               0
1.41584               -0.1300578       -16.98032        -53.80023         68.4894             -200               0             -200               0
1.42244               -0.1335088       -17.13134        -53.58541        65.23519             -200               0             -200               0
1.42904               -0.1370341       -17.28462        -53.37449        62.05213             -200               0             -200               0
1.43564               -0.1406524       -17.44023        -53.16588         58.9412             -200               0             -200               0
1.44224               -0.1443835       -17.59822        -52.95792        55.90216             -200               0             -200               0
1.44884               -0.1482495       -17.75863          -52.749         52.9335             -200               0             -200               0
1.45545               -0.1522706       -17.92149         -52.5375        50.03235             -200               0             -200               0
1.46205               -0.1564676        -18.0868        -52.32186        47.19443             -200               0             -200               0
1.46865               -0.1608611       -18.25454        -52.10063        44.41409             -200               0             -200               0
1.47525               -0.1654696       -18.42469        -51.87248        41.68432             -200               0             -200               0
1.48185               -0.1703111        -18.5972        -51.63624        38.99691             -200               0             -200               0
1.48845               -0.1754001       -18.77199        -51.39095        36.34261             -200               0             -200               0
1.49505                 -0.18075       -18.94902        -51.13586        33.71135             -200               0             -200               0
1.50165               -0.1863708       -19.12818         -50.8705        31.09253             -200               0             -200               0
1.50825               -0.1922709       -19.30941        -50.59463        28.47533             -200               0             -200               0
1.51485               -0.1984541       -19.49262         -50.3083        25.84901             -200               0             -200               0
1.52145               -0.2049227       -19.67772        -50.01178        23.20324             -200               0             -200               0
1.52805               -0.2116739       -19.86464        -49.70558        20.52839             -200               0             -200               0
1.53465               -0.2187045        -20.0533        -49.39043        17.81571             -200               0             -200               0
1.54125               -0.2260076       -20.24366         -49.0672         15.0576             -200               0             -200               0
1.54785               -0.2335738       -20.43567        -48.73689        12.24766             -200               0             -200               0
1.55446               -0.2413918       -20.62931        -48.40061        9.380795             -200               0             -200               0
1.56106               -0.2494491       -20.82458        -48.05949        6.453181             -200               0             -200               0
1.56766               -0.2577332       -21.02151        -47.71469        3.462261             -200               0             -200               0
1.57426               -0.2662286       -21.22014        -47.36735       0.4066436             -200               0             -200               0
1.58086               -0.2749229       -21.42053        -47.01859       -2.713999             -200               0             -200               0
1.58746               -0.2838017        -21.6228        -46.66943       -5.899056             -200               0             -200               0
1.59406               -0.2928555       -21.82705        -46.32087        -9.14711             -200               0             -200               0
1.60066               -0.3020738       -22.03344        -45.97377       -12.45606             -200               0             -200               0
1.60726               -0.3114499       -22.24214        -45.62894       -15.82327             -200               0             -200               0
1.61386               -0.3209796       -22.45331        -45.28709       -19.24564             -200               0             -200               0
1.62046               -0.3306646       -22.66718        -44.94882       -22.71977             -200               0             -200               0
1.62706                -0.340507       -22.88395        -44.61467         -26.242             -200               0             -200               0
1.63366               -0.3505173       -23.10384        -44.28508       -29.80853             -200               0             -200               0
1.64026               -0.3607071        -23.3271        -43.96039       -33.41545             -200               0             -200               0
1.64686               -0.3710948       -23.55393         -43.6409       -37.05882             -200               0             -200               0
1.65347               -0.3817019       -23.78457        -43.32681       -40.73474             -200               0             -200               0
1.66007               -0.3925576       -24.01923        -43.01826       -44.43934             -200               0             -200               0
1.66667               -0.4036899       -24.25811        -42.71533       -48.16882             -200               0             -200               0
1.67327               -0.4151367        -24.5014        -42.41806       -51.91953             -200               0             -200               0
1.67987               -0.4269362       -24.74925         -42.1264       -55.68793             -200               0             -200               0
1.68647               -0.4391303        -25.0018        -41.84029       -59.47063             -200               0             -200               0
1.69307               -0.4517636       -25.25916         -41.5596        -63.2644             -200               0             -200               0
1.69967               -0.4648821       -25.52142        -41.28417       -67.06621             -200               0             -200               0
1.70627               -0.4785324       -25.78862         -41.0138       -70.87321             -200               0             -200               0
1.71287               -0.4927631       -26.06077        -40.74827       -74.68274             -200               0             -200               0
1.71947               -0.5076211       -26.33788        -40.48729       -78.49236             -200               0             -200               0
1.72607               -0.5231515       -26.61988        -40.23059       -82.29988             -200               0             -200               0
1.73267               -0.5393988       -26.90673        -39.97784       -86.10329             -200               0             -200               0
1.73927               -0.5564046       -27.19831        -39.72869       -89.90088             -200               0             -200               0
1.74587                -0.574205        -27.4945        -39.48279       -93.69115             -200               0             -200               0
1.75248                -0.592837       -27.79519        -39.23975       -97.47288             -200               0             -200               0
1.75908               -0.6123296       -28.10022        -38.99919       -101.2451             -200               0             -200               0
1.76568               -0.6327086       -28.40943         -38.7607       -105.0072             -200               0             -200               0
1.77228               -0.6539946       -28.72268        -38.52388       -108.7588             -200               0             -200               0
1.77888               -0.6762042        -29.0398         -38.2883       -112.4998             -200               0             -200               0
1.78548               -0.6993495       -29.36066        -38.05358       -116.2303             -200               0             -200               0
1.79208               -0.7234363       -29.68514         -37.8193       -119.9509             -200               0             -200               0
1.79868               -0.7484697       -30.01313        -37.58507       -123.6624             -200               0             -200               0
1.80528               -0.7744473       -30.34455        -37.35053       -127.3658             -200               0             -200               0
1.81188               -0.8013676       -30.67937        -37.11533       -131.0624             -200               0             -200               0
1.81848               -0.8292245       -31.01758        -36.87913        -134.754             -200               0             -200               0
1.82508               -0.8580119       -31.35923        -36.64164       -138.4422             -200               0             -200               0
1.83168               -0.8877236       -31.70439        -36.40261       -142.1291             -200               0             -200               0
1.83828               -0.9183548       -32.05319        -36.16181       -145.8169             -200               0             -200               0
1.84488               -0.9499015       -32.40582        -35.91906        -149.508             -200               0             -200               0
1.85149               -0.9823655       -32.76251        -35.67422       -153.2049             -200               0             -200               0
1.85809                 -1.01575       -33.12351        -35.42718         -156.91             -200               0             -200               0
1.86469                -1.050068       -33.48916        -35.17792       -160.6261             -200               0             -200               0
1.87129                -1.085337       -33.85981        -34.92641       -164.3558             -200               0             -200               0
1.87789                -1.121583       -34.23586        -34.67271       -168.1015             -200               0             -200               0
1.88449                -1.158844       -34.61772        -34.41689       -171.8658             -200               0             -200               0
1.89109                -1.197164       -35.00586        -34.15907        -175.651             -200               0             -200               0
1.89769                -1.236605       -35.40073        -33.89942       -179.4596             -200               0             -200               0
1.90429                -1.277231        -35.8028        -33.63813        176.7064             -200               0             -200               0
1.91089                -1.319129       -36.21254        -33.37543        172.8452             -200               0             -200               0
1.91749                 -1.36239        -36.6304        -33.11156        168.9548             -200               0             -200               0
1.92409                -1.407123       -37.05683        -32.84679        165.0337             -200               0             -200               0
1.93069                -1.453449       -37.49222        -32.58141        161.0807             -200               0             -200               0
1.93729                -1.501499       -37.93694        -32.31572        157.0945             -200               0             -200               0
1.94389                -1.551419       -38.39128        -32.05003        153.0743             -200               0             -200               0
1.9505                 -1.603365        -38.8555        -31.78465        149.0193             -200               0             -200               0
1.9571                 -1.657502       -39.32979         -31.5199         144.929             -200               0             -200               0
1.9637                 -1.714008       -39.81424        -31.25609        140.8032             -200               0             -200               0
1.9703                 -1.773068       -40.30888        -30.99352        136.6416             -200               0             -200               0
1.9769                 -1.834874       -40.81364        -30.73249        132.4442             -200               0             -200               0
1.9835                 -1.899629       -41.32836         -30.4733        128.2114             -200               0             -200               0
1.9901                 -1.967532       -41.85278        -30.21622        123.9433             -200               0             -200               0
1.9967                 -2.038797       -42.38655        -29.96153        119.6404             -200               0             -200               0
2.0033                 -2.113631       -42.92921        -29.70948        115.3033             -200               0             -200               0
2.0099                  -2.19225       -43.48019        -29.46031        110.9326             -200               0             -200               0
2.0165                 -2.274867       -44.03883        -29.21424        106.5291             -200               0             -200               0
2.0231                 -2.361694       -44.60437         -28.9715        102.0935             -200               0             -200               0
2.0297                 -2.452944       -45.17595        -28.73227        97.62678             -200               0             -200               0
2.0363                 -2.548824        -45.7526        -28.49675        93.12978             -200               0             -200               0
2.0429                 -2.649542       -46.33327         -28.2651        88.60347             -200               0             -200               0
2.0495                 -2.755298        -46.9168        -28.03749        84.04885             -200               0             -200               0
2.05611                -2.866288       -47.50196        -27.81405        79.46691             -200               0             -200               0
2.06271                -2.982707       -48.08744        -27.59493        74.85868             -200               0             -200               0
2.06931                -3.104739       -48.67182        -27.38023        70.22519             -200               0             -200               0
2.07591                -3.232567       -49.25364        -27.17008        65.56748             -200               0             -200               0
2.08251                -3.366368       -49.83134        -26.96457        60.88658             -200               0             -200               0
2.08911                -3.506311        -50.4033        -26.76379        56.18354             -200               0             -200               0
2.09571                -3.652564       -50.96782        -26.56782        51.45937             -200               0             -200               0
2.10231                -3.805289       -51.52316        -26.37673        46.71508             -200               0             -200               0
2.10891                -3.964641       -52.06749        -26.19059         41.9517             -200               0             -200               0
2.11551                -4.130778       -52.59892        -26.00946        37.17019             -200               0             -200               0
2.12211                -4.303852        -53.1155        -25.83339        32.37154             -200               0             -200               0
2.12871                -4.484016       -53.61522        -25.66242        27.55671             -200               0             -200               0
2.13531                -4.671422       -54.09597        -25.49659        22.72662             -200               0             -200               0
2.14191                -4.866226       -54.55558        -25.33593        17.88221             -200               0             -200               0
2.14851                -5.068586       -54.99179        -25.18047        13.02438             -200               0             -200               0
2.15512                -5.278665       -55.40223        -25.03025        8.154006             -200               0             -200               0
2.16172                -5.496635       -55.78443        -24.88527        3.271964             -200               0             -200               0
2.16832                -5.722676       -56.13574        -24.74555       -1.620896             -200               0             -200               0
2.17492                 -5.95698       -56.45342        -24.61112       -6.523742             -200               0             -200               0
2.18152                 -6.19975       -56.73447        -24.48197       -11.43576             -200               0             -200               0
2.18812                -6.451208       -56.97569        -24.35812       -16.35614             -200               0             -200               0
2.19472                 -6.71159        -57.1736        -24.23958       -21.28412             -200               0             -200               0
2.20132                -6.981151        -57.3244        -24.12634       -26.21891             -200               0             -200               0
2.20792                -7.260165       -57.42388        -24.01841       -31.15976             -200               0             -200               0
2.21452                -7.548924       -57.46737        -23.91579       -36.10593             -200               0             -200               0
2.22112                 -7.84774       -57.44962        -23.81848       -41.05668             -200               0             -200               0
2.22772                -8.156938       -57.36474        -23.72647        -46.0113             -200               0             -200               0
2.23432                -8.476853       -57.20602        -23.63976       -50.96909             -200               0             -200               0
2.24092                -8.807821       -56.96578        -23.55834       -55.92933             -200               0             -200               0
2.24752                -9.150166       -56.63529         -23.4822       -60.89135             -200               0             -200               0
2.25413                -9.504182       -56.20442        -23.41134       -65.85446             -200               0             -200               0
2.26073                -9.870109       -55.66156        -23.34575       -70.81798             -200               0             -200               0
2.26733                -10.24809       -54.99328        -23.28541       -75.78125             -200               0             -200               0
2.27393                -10.63812       -54.18411        -23.23032       -80.74361             -200               0             -200               0
2.28053                -11.03998       -53.21621        -23.18046        -85.7044             -200               0             -200               0
2.28713                -11.45315       -52.06917        -23.13582       -90.66295             -200               0             -200               0
2.29373                -11.87666       -50.71974        -23.09639       -95.61863             -200               0             -200               0