! TOUCHSTONE file generated by CST MICROWAVE STUDIO
! Date and time: Sat Mar  8 13:53:53 2025
! Project name: non_fractured.cst
! Parameters = {B=2.5; D=160; F=5; Feed=2.85625; L=100; M=5; R=0.384908; S=1; Theta=90; length=57.125; wave=114.25}
! Header version: 2024
! Port assignment regex: !\s*Touchstone port\s*([0-9]+)\s*=\s*(CST MWS port|CST DES external port|CST DES block port)\s*(.+)\s* \(\"(.*)\"\)(\s*mode\s*([0-9]+))?.*
! Touchstone port assignment:
! Touchstone port 1 = CST MWS port 1 ("")
! Touchstone port 2 = CST MWS port 2 ("")
# GHz S DB R 50
1                    -0.01939975       -9.835401        -66.60394       -99.64233             -200               0             -200               0
1.00662              -0.01992292       -9.924544        -66.09786       -105.0296             -200               0             -200               0
1.01325              -0.02047627       -10.01442        -65.63654       -110.3928             -200               0             -200               0
1.01987               -0.0210642       -10.10504        -65.21668        -115.726             -200               0             -200               0
1.02649              -0.02169087       -10.19636        -64.83552       -121.0239             -200               0             -200               0
1.03311               -0.0223598        -10.2884        -64.49076       -126.2815             -200               0             -200               0
1.03974              -0.02307369       -10.38112        -64.18049       -131.4935             -200               0             -200               0
1.04636              -0.02383436        -10.4745        -63.90308       -136.6545             -200               0             -200               0
1.05298              -0.02464194       -10.56853        -63.65717       -141.7592             -200               0             -200               0
1.0596               -0.02549825       -10.66318         -63.4416       -146.8015             -200               0             -200               0
1.06623              -0.02640201       -10.75842        -63.25538        -151.775             -200               0             -200               0
1.07285               -0.0273508       -10.85425        -63.09765       -156.6729             -200               0             -200               0
1.07947              -0.02834318       -10.95063        -62.96765       -161.4873             -200               0             -200               0
1.08609              -0.02937607       -11.04755        -62.86473       -166.2097             -200               0             -200               0
1.09272              -0.03044522       -11.14501        -62.78824       -170.8306             -200               0             -200               0
1.09934              -0.03154623         -11.243        -62.73756       -175.3393             -200               0             -200               0
1.10596              -0.03267347       -11.34151        -62.71204        -179.724             -200               0             -200               0
1.11258              -0.03382312       -11.44056        -62.71096        176.0288             -200               0             -200               0
1.11921              -0.03498809       -11.54016        -62.73343         171.934             -200               0             -200               0
1.12583              -0.03616359       -11.64033         -62.7784        168.0083             -200               0             -200               0
1.13245              -0.03734456        -11.7411        -62.84447        164.2701             -200               0             -200               0
1.13907              -0.03852576        -11.8425        -62.92988        160.7397             -200               0             -200               0
1.1457               -0.03970268       -11.94458         -63.0323        157.4387             -200               0             -200               0
1.15232              -0.04087113       -12.04738        -63.14873        154.3902             -200               0             -200               0
1.15894              -0.04202867       -12.15096        -63.27528        151.6176             -200               0             -200               0
1.16556              -0.04317236       -12.25538        -63.40703        149.1433             -200               0             -200               0
1.17219              -0.04430251        -12.3607        -63.53786        146.9872             -200               0             -200               0
1.17881              -0.04541834       -12.46699        -63.66033        145.1638             -200               0             -200               0
1.18543              -0.04652216        -12.5743        -63.76577        143.6787             -200               0             -200               0
1.19205              -0.04761559       -12.68272        -63.84445        142.5252             -200               0             -200               0
1.19868              -0.04870243        -12.7923        -63.88614        141.6803             -200               0             -200               0
1.2053                 -0.049789       -12.90312        -63.88092         141.102             -200               0             -200               0
1.21192              -0.05088075       -13.01522         -63.8202        140.7292             -200               0             -200               0
1.21854              -0.05198485       -13.12867        -63.69787        140.4842             -200               0             -200               0
1.22517              -0.05310997       -13.24351        -63.51118        140.2792             -200               0             -200               0
1.23179              -0.05426419       -13.35979        -63.26116        140.0245             -200               0             -200               0
1.23841               -0.0554567       -13.47755        -62.95245        139.6376             -200               0             -200               0
1.24503              -0.05669918       -13.59681        -62.59251        139.0505             -200               0             -200               0
1.25166              -0.05800077        -13.7176        -62.19063        138.2141             -200               0             -200               0
1.25828              -0.05937199       -13.83993        -61.75678        137.0985             -200               0             -200               0
1.2649               -0.06082231        -13.9638        -61.30068        135.6915             -200               0             -200               0
1.27152               -0.0623617       -14.08921        -60.83118         133.995             -200               0             -200               0
1.27815              -0.06399889       -14.21616        -60.35591        132.0212             -200               0             -200               0
1.28477              -0.06574306       -14.34462        -59.88119        129.7892             -200               0             -200               0
1.29139              -0.06760079       -14.47457        -59.41206        127.3217             -200               0             -200               0
1.29801              -0.06957979         -14.606        -58.95242         124.643             -200               0             -200               0
1.30464              -0.07168358       -14.73887        -58.50521        121.7779             -200               0             -200               0
1.31126              -0.07391899       -14.87315        -58.07256        118.7498             -200               0             -200               0
1.31788               -0.0762868       -15.00882        -57.65597        115.5815             -200               0             -200               0
1.3245               -0.07879101       -15.14584        -57.25646        112.2936             -200               0             -200               0
1.33113              -0.08143061       -15.28419        -56.87463        108.9054             -200               0             -200               0
1.33775              -0.08420721       -15.42385        -56.51078        105.4345             -200               0             -200               0
1.34437              -0.08711908        -15.5648          -56.165        101.8972             -200               0             -200               0
1.35099              -0.09016415       -15.70702        -55.83718         98.3081             -200               0             -200               0
1.35762               -0.0933406       -15.85052        -55.52706        94.68088             -200               0             -200               0
1.36424               -0.0966448       -15.99529        -55.23429        91.02807             -200               0             -200               0
1.37086               -0.1000753       -16.14135        -54.95842        87.36133             -200               0             -200               0
1.37748               -0.1036268       -16.28871        -54.69892        83.69149             -200               0             -200               0
1.38411                -0.107298        -16.4374        -54.45516        80.02873             -200               0             -200               0
1.39073                -0.111087       -16.58746        -54.22649        76.38264             -200               0             -200               0
1.39735               -0.1149905       -16.73893        -54.01215        72.76227             -200               0             -200               0
1.40397               -0.1190083       -16.89185        -53.81132        69.17621             -200               0             -200               0
1.4106                -0.1231412       -17.04629        -53.62311        65.63259             -200               0             -200               0
1.41722               -0.1273905       -17.20229        -53.44655        62.13911             -200               0             -200               0
1.42384               -0.1317572       -17.35992        -53.28055        58.70298             -200               0             -200               0
1.43046               -0.1362466       -17.51924        -53.12397        55.33092             -200               0             -200               0
1.43709               -0.1408631       -17.68032        -52.97552        52.02907             -200               0             -200               0
1.44371               -0.1456123       -17.84322        -52.83383        48.80287             -200               0             -200               0
1.45033               -0.1505041       -18.00799        -52.69743        45.65698             -200               0             -200               0
1.45695                -0.155545       -18.17469        -52.56471        42.59511             -200               0             -200               0
1.46358               -0.1607465       -18.34337        -52.43398        39.61987             -200               0             -200               0
1.4702                -0.1661196       -18.51406        -52.30346        36.73255             -200               0             -200               0
1.47682               -0.1716755       -18.68681        -52.17132        33.93299             -200               0             -200               0
1.48344               -0.1774252       -18.86164        -52.03567        31.21941             -200               0             -200               0
1.49007                -0.183382       -19.03856        -51.89464        28.58827             -200               0             -200               0
1.49669                -0.189557       -19.21758        -51.74641        26.03413             -200               0             -200               0
1.50331               -0.1959631        -19.3987        -51.58926        23.54974             -200               0             -200               0
1.50993               -0.2026106        -19.5819        -51.42163          21.126             -200               0             -200               0
1.51656               -0.2095097       -19.76717        -51.24218         18.7522             -200               0             -200               0
1.52318               -0.2166695       -19.95447        -51.04985        16.41623             -200               0             -200               0
1.5298                 -0.224098       -20.14378        -50.84386        14.10494             -200               0             -200               0
1.53642               -0.2318008       -20.33505        -50.62381        11.80456             -200               0             -200               0
1.54305               -0.2397836       -20.52826        -50.38963        9.501192             -200               0             -200               0
1.54967               -0.2480474       -20.72336        -50.14161        7.181244             -200               0             -200               0
1.55629               -0.2565944       -20.92031        -49.88035          4.8319             -200               0             -200               0
1.56291               -0.2654225       -21.11909        -49.60678        2.441499             -200               0             -200               0
1.56954               -0.2745294       -21.31967        -49.32202   -0.0001501086             -200               0             -200               0
1.57616               -0.2839111       -21.52203        -49.02742       -2.501562             -200               0             -200               0
1.58278               -0.2935605       -21.72617        -48.72444       -5.069466             -200               0             -200               0
1.5894                -0.3034712        -21.9321         -48.4146       -7.708782             -200               0             -200               0
1.59603               -0.3136336       -22.13983        -48.09945       -10.42268             -200               0             -200               0
1.60265               -0.3240396       -22.34942        -47.78052       -13.21271             -200               0             -200               0
1.60927               -0.3346811       -22.56092        -47.45927       -16.07896             -200               0             -200               0
1.61589                -0.345546       -22.77441        -47.13705       -19.02022             -200               0             -200               0
1.62252               -0.3566283       -22.98999        -46.81515       -22.03425             -200               0             -200               0
1.62914               -0.3679203       -23.20777        -46.49469       -25.11788             -200               0             -200               0
1.63576               -0.3794121       -23.42788        -46.17668       -28.26725             -200               0             -200               0
1.64238                -0.391103       -23.65049        -45.86201       -31.47798             -200               0             -200               0
1.64901               -0.4029899       -23.87577        -45.55143       -34.74526             -200               0             -200               0
1.65563                -0.415072        -24.1039        -45.24556       -38.06406             -200               0             -200               0
1.66225               -0.4273531       -24.33508        -44.94493       -41.42914             -200               0             -200               0
1.66887               -0.4398397       -24.56952        -44.64992       -44.83519             -200               0             -200               0
1.6755                -0.4525427       -24.80745        -44.36085       -48.27693             -200               0             -200               0
1.68212               -0.4654754       -25.04909        -44.07791       -51.74908             -200               0             -200               0
1.68874               -0.4786564       -25.29466        -43.80122       -55.24649             -200               0             -200               0
1.69536               -0.4921064       -25.54439        -43.53081       -58.76414             -200               0             -200               0
1.70199               -0.5058513       -25.79851        -43.26665       -62.29715             -200               0             -200               0
1.70861               -0.5199211       -26.05723         -43.0086       -65.84088             -200               0             -200               0
1.71523               -0.5343463       -26.32075         -42.7565       -69.39084             -200               0             -200               0
1.72185                -0.549166       -26.58926         -42.5101       -72.94285             -200               0             -200               0
1.72848               -0.5644163       -26.86295        -42.26909       -76.49293             -200               0             -200               0
1.7351                -0.5801415       -27.14197        -42.03311       -80.03741             -200               0             -200               0
1.74172               -0.5963839       -27.42646        -41.80177       -83.57292             -200               0             -200               0
1.74834               -0.6131898       -27.71655         -41.5746       -87.09642             -200               0             -200               0
1.75497               -0.6306052       -28.01233         -41.3511        -90.6052             -200               0             -200               0
1.76159               -0.6486794       -28.31388        -41.13073       -94.09696             -200               0             -200               0
1.76821               -0.6674588       -28.62126        -40.91291        -97.5698             -200               0             -200               0
1.77483               -0.6869923       -28.93452        -40.69704       -101.0222             -200               0             -200               0
1.78146               -0.7073262       -29.25367        -40.48248       -104.4533             -200               0             -200               0
1.78808                -0.728509       -29.57872        -40.26858       -107.8624             -200               0             -200               0
1.7947                -0.7505854       -29.90968        -40.05469       -111.2495             -200               0             -200               0
1.80132               -0.7735993       -30.24651        -39.84014       -114.6153             -200               0             -200               0
1.80795               -0.7975921       -30.58921        -39.62428       -117.9606             -200               0             -200               0
1.81457               -0.8226054       -30.93774        -39.40649       -121.2872             -200               0             -200               0
1.82119               -0.8486781       -31.29208        -39.18614       -124.5971             -200               0             -200               0
1.82781               -0.8758472        -31.6522        -38.96269       -127.8929             -200               0             -200               0
1.83444               -0.9041493       -32.01811        -38.73561       -131.1777             -200               0             -200               0
1.84106               -0.9336183       -32.38979        -38.50445       -134.4551             -200               0             -200               0
1.84768               -0.9642893       -32.76725        -38.26884       -137.7289             -200               0             -200               0
1.8543                -0.9961951       -33.15052        -38.02847       -141.0033             -200               0             -200               0
1.86093                 -1.02937       -33.53965        -37.78311       -144.2828             -200               0             -200               0
1.86755                -1.063851       -33.93471        -37.53264        -147.572             -200               0             -200               0
1.87417                -1.099675       -34.33579        -37.27701       -150.8755             -200               0             -200               0
1.88079                -1.136878       -34.74302        -37.01627       -154.1979             -200               0             -200               0
1.88742                -1.175507       -35.15653        -36.75055       -157.5437             -200               0             -200               0
1.89404                -1.215607       -35.57648        -36.48006       -160.9172             -200               0             -200               0
1.90066                 -1.25723       -36.00307         -36.2051       -164.3225             -200               0             -200               0
1.90728                -1.300435        -36.4365        -35.92603       -167.7633             -200               0             -200               0
1.91391                -1.345284       -36.87699        -35.64324        -171.243             -200               0             -200               0
1.92053                -1.391853       -37.32479        -35.35721       -174.7645             -200               0             -200               0
1.92715                -1.440218       -37.78013        -35.06842       -178.3305             -200               0             -200               0
1.93377                -1.490471       -38.24328        -34.77741         178.057             -200               0             -200               0
1.9404                 -1.542709       -38.71447        -34.48471        174.3963             -200               0             -200               0
1.94702                -1.597042       -39.19393        -34.19087        170.6861             -200               0             -200               0
1.95364                -1.653589       -39.68191        -33.89643        166.9255             -200               0             -200               0
1.96026                -1.712478       -40.17861        -33.60193        163.1142             -200               0             -200               0
1.96689                -1.773852       -40.68418         -33.3079        159.2518             -200               0             -200               0
1.97351                 -1.83786       -41.19879        -33.01485        155.3387             -200               0             -200               0
1.98013                -1.904666       -41.72249        -32.72325        151.3753             -200               0             -200               0
1.98675                -1.974444       -42.25537        -32.43356        147.3622             -200               0             -200               0
1.99338                -2.047376       -42.79737        -32.14622        143.3005             -200               0             -200               0
2                      -2.123659       -43.34843        -31.86162        139.1911             -200               0             -200               0
2.00662                -2.203495        -43.9084        -31.58014        135.0353             -200               0             -200               0
2.01325                  -2.2871       -44.47703        -31.30213        130.8346             -200               0             -200               0
2.01987                -2.374694       -45.05402        -31.02789        126.5903             -200               0             -200               0
2.02649                -2.466512       -45.63895        -30.75771         122.304             -200               0             -200               0
2.03311                -2.562791       -46.23134        -30.49185        117.9772             -200               0             -200               0
2.03974                -2.663778       -46.83056        -30.23055        113.6117             -200               0             -200               0
2.04636                -2.769727       -47.43591        -29.97401         109.209             -200               0             -200               0
2.05298                -2.880902       -48.04658        -29.72243        104.7708             -200               0             -200               0
2.0596                 -2.997566       -48.66165        -29.47597        100.2988             -200               0             -200               0
2.06623                -3.119993       -49.28004        -29.23478        95.79446             -200               0             -200               0
2.07285                -3.248459        -49.9006        -28.99898        91.25953             -200               0             -200               0
2.07947                 -3.38325       -50.52202         -28.7687        86.69556             -200               0             -200               0
2.08609                -3.524652       -51.14288        -28.54403        82.10411             -200               0             -200               0
2.09272                 -3.67296        -51.7616        -28.32505        77.48669             -200               0             -200               0
2.09934                 -3.82847       -52.37647        -28.11184        72.84478             -200               0             -200               0
2.10596                -3.991488       -52.98561        -27.90447        68.17983             -200               0             -200               0
2.11258                 -4.16232       -53.58699        -27.70297        63.49325             -200               0             -200               0
2.11921                -4.341283       -54.17841         -27.5074        58.78641             -200               0             -200               0
2.12583                -4.528697       -54.75748        -27.31779        54.06062             -200               0             -200               0
2.13245                -4.724888       -55.32161        -27.13416        49.31719             -200               0             -200               0
2.13907                -4.930193       -55.86798        -26.95655        44.55735             -200               0             -200               0
2.1457                 -5.144954       -56.39356        -26.78495        39.78232             -200               0             -200               0
2.15232                 -5.36952       -56.89502        -26.61939        34.99329             -200               0             -200               0
2.15894                -5.604253       -57.36875        -26.45987        30.19138             -200               0             -200               0
2.16556                -5.849521       -57.81083        -26.30639        25.37771             -200               0             -200               0
2.17219                -6.105703       -58.21691        -26.15895        20.55337             -200               0             -200               0
2.17881                -6.373188       -58.58228        -26.01755         15.7194             -200               0             -200               0
2.18543                -6.652375       -58.90169        -25.88217        10.87681             -200               0             -200               0
2.19205                -6.943668       -59.16937        -25.75281        6.026617             -200               0             -200               0
2.19868                -7.247477       -59.37887        -25.62946        1.169779             -200               0             -200               0
2.2053                 -7.564214       -59.52302         -25.5121        -3.69275             -200               0             -200               0
2.21192                -7.894288        -59.5938        -25.40071       -8.560043             -200               0             -200               0
2.21854                -8.238093       -59.58213        -25.29528       -13.43119             -200               0             -200               0
2.22517                -8.595996        -59.4778        -25.19579        -18.3053             -200               0             -200               0
2.23179                -8.968319       -59.26923        -25.10223       -23.18149             -200               0             -200               0
2.23841                -9.355314       -58.94324        -25.01456       -28.05891             -200               0             -200               0
2.24503                -9.757125       -58.48484        -24.93278       -32.93669             -200               0             -200               0
2.25166                -10.17373       -57.87686        -24.85685       -37.81401             -200               0             -200               0
2.25828                 -10.6049       -57.09983        -24.78675       -42.69003             -200               0             -200               0
2.2649                 -11.05004       -56.13149        -24.72246       -47.56393             -200               0             -200               0
2.27152                -11.50814       -54.94673        -24.66395       -52.43489             -200               0             -200               0
2.27815                -11.97755       -53.51735        -24.61121        -57.3021             -200               0             -200               0
2.28477                -12.45579       -51.81224        -24.56419       -62.16475             -200               0             -200               0
2.29139                -12.93925       -49.79786        -24.52287       -67.02204             -200               0             -200               0
2.29801                -13.42288       -47.43948        -24.48723       -71.87316             -200               0             -200               0