! TOUCHSTONE file generated by CST MICROWAVE STUDIO
! Date and time: Sat Mar  8 13:55:42 2025
! Project name: non_fractured.cst
! Parameters = {B=2.5; D=160; F=25; Feed=2.85625; L=100; M=20; R=0.384908; S=2.5; Theta=0; length=57.125; wave=114.25}
! Header version: 2024
! Port assignment regex: !\s*Touchstone port\s*([0-9]+)\s*=\s*(CST MWS port|CST DES external port|CST DES block port)\s*(.+)\s* \(\"(.*)\"\)(\s*mode\s*([0-9]+))?.*
! Touchstone port assignment:
! Touchstone port 1 = CST MWS port 1 ("")
! Touchstone port 2 = CST MWS port 2 ("")
# GHz S DB R 50
1                    -0.02018237       -9.757361        -66.32108       -176.4604             -200               0             -200               0
1.0066               -0.02091192       -9.844691        -66.33026        178.6352             -200               0             -200               0
1.0132               -0.02165194       -9.932549        -66.36768        173.8745             -200               0             -200               0
1.0198               -0.02240368       -10.02096        -66.43322        169.2729             -200               0             -200               0
1.0264               -0.02316674       -10.10993        -66.52664        164.8486             -200               0             -200               0
1.033                -0.02394018        -10.1995        -66.64749        160.6231             -200               0             -200               0
1.0396                 -0.024723       -10.28968        -66.79502        156.6215             -200               0             -200               0
1.0462               -0.02551836        -10.3805        -66.96798        152.8728             -200               0             -200               0
1.05281              -0.02632729       -10.47197        -67.16438        149.4103             -200               0             -200               0
1.05941              -0.02714823       -10.56412        -67.38125        146.2718             -200               0             -200               0
1.06601              -0.02798694       -10.65698        -67.61419        143.4983             -200               0             -200               0
1.07261              -0.02884076       -10.75056        -67.85695        141.1333             -200               0             -200               0
1.07921              -0.02971655       -10.84489        -68.10091        139.2192             -200               0             -200               0
1.08581              -0.03061489       -10.93997        -68.33459        137.7923             -200               0             -200               0
1.09241              -0.03153805       -11.03583        -68.54342        136.8753             -200               0             -200               0
1.09901              -0.03249027       -11.13247        -68.70997        136.4665             -200               0             -200               0
1.10561              -0.03347284       -11.22992        -68.81511        136.5293             -200               0             -200               0
1.11221              -0.03449083       -11.32818        -68.84012        136.9829             -200               0             -200               0
1.11881               -0.0355466       -11.42725        -68.76974         137.702             -200               0             -200               0
1.12541              -0.03664329       -11.52713        -68.59531         138.527             -200               0             -200               0
1.13201              -0.03778284       -11.62784        -68.31675        139.2852             -200               0             -200               0
1.13861              -0.03896902       -11.72937        -67.94258        139.8174             -200               0             -200               0
1.14521              -0.04020293       -11.83171        -67.48789        139.9987             -200               0             -200               0
1.15182               -0.0414873       -11.93486         -66.9712        139.7491             -200               0             -200               0
1.15842              -0.04282489       -12.03883        -66.41142        139.0327             -200               0             -200               0
1.16502              -0.04421595       -12.14359        -65.82574        137.8486             -200               0             -200               0
1.17162              -0.04566005       -12.24916        -65.22845        136.2202             -200               0             -200               0
1.17822              -0.04715951       -12.35552        -64.63078        134.1848             -200               0             -200               0
1.18482              -0.04871449       -12.46266        -64.04108        131.7857             -200               0             -200               0
1.19142              -0.05032354       -12.57059         -63.4653        129.0674             -200               0             -200               0
1.19802               -0.0519867        -12.6793        -62.90754        126.0723             -200               0             -200               0
1.20462              -0.05370347       -12.78879        -62.37047        122.8394             -200               0             -200               0
1.21122              -0.05547046       -12.89906        -61.85573        119.4035             -200               0             -200               0
1.21782              -0.05728872       -13.01013         -61.3642        115.7954             -200               0             -200               0
1.22442              -0.05915452       -13.12199        -60.89626        112.0421             -200               0             -200               0
1.23102              -0.06106713       -13.23467        -60.45194        108.1671             -200               0             -200               0
1.23762              -0.06302537       -13.34816          -60.031        104.1912             -200               0             -200               0
1.24422              -0.06502645       -13.46249        -59.63308        100.1325             -200               0             -200               0
1.25083              -0.06706944       -13.57769        -59.25768        96.00674             -200               0             -200               0
1.25743              -0.06915244       -13.69377        -58.90428        91.82827             -200               0             -200               0
1.26403              -0.07127531       -13.81076        -58.57231        87.60973             -200               0             -200               0
1.27063              -0.07343467       -13.92869        -58.26119         83.3626             -200               0             -200               0
1.27723              -0.07563245        -14.0476        -57.97033        79.09735             -200               0             -200               0
1.28383              -0.07786878        -14.1675        -57.69915        74.82365             -200               0             -200               0
1.29043              -0.08014105       -14.28844        -57.44708        70.55057             -200               0             -200               0
1.29703              -0.08245294       -14.41046        -57.21354        66.28665             -200               0             -200               0
1.30363              -0.08480498       -14.53357        -56.99795        62.04008             -200               0             -200               0
1.31023              -0.08719803       -14.65784        -56.79975        57.81876             -200               0             -200               0
1.31683              -0.08963583       -14.78328        -56.61832        53.63046             -200               0             -200               0
1.32343              -0.09211822       -14.90993        -56.45307        49.48281             -200               0             -200               0
1.33003              -0.09464924       -15.03782        -56.30334        45.38339             -200               0             -200               0
1.33663              -0.09723265       -15.16699        -56.16844        41.33981             -200               0             -200               0
1.34323              -0.09987064       -15.29746        -56.04762        37.35969             -200               0             -200               0
1.34984               -0.1025675       -15.42926        -55.94007        33.45069             -200               0             -200               0
1.35644               -0.1053252       -15.56241        -55.84486        29.62052             -200               0             -200               0
1.36304               -0.1081489       -15.69694        -55.76098        25.87686             -200               0             -200               0
1.36964               -0.1110415       -15.83287        -55.68727        22.22735             -200               0             -200               0
1.37624               -0.1140051       -15.97022        -55.62243        18.67944             -200               0             -200               0
1.38284               -0.1170441       -16.10901          -55.565        15.24029             -200               0             -200               0
1.38944               -0.1201595       -16.24925        -55.51331        11.91655             -200               0             -200               0
1.39604               -0.1233554       -16.39096        -55.46552        8.714154             -200               0             -200               0
1.40264               -0.1266316       -16.53416        -55.41955         5.63798             -200               0             -200               0
1.40924               -0.1299922       -16.67886        -55.37314        2.691549             -200               0             -200               0
1.41584               -0.1334364       -16.82508        -55.32383      -0.1233869             -200               0             -200               0
1.42244               -0.1369659       -16.97286        -55.26897       -2.807241             -200               0             -200               0
1.42904               -0.1405806        -17.1222        -55.20584       -5.363005             -200               0             -200               0
1.43564                 -0.14428       -17.27313        -55.13164       -7.796598             -200               0             -200               0
1.44224               -0.1480646       -17.42569        -55.04364       -10.11713             -200               0             -200               0
1.44884                -0.151934       -17.57991        -54.93927         -12.337             -200               0             -200               0
1.45545               -0.1558869       -17.73584        -54.81621       -14.47182             -200               0             -200               0
1.46205               -0.1599226       -17.89351        -54.67256       -16.54006             -200               0             -200               0
1.46865               -0.1640411       -18.05298        -54.50691       -18.56254             -200               0             -200               0
1.47525               -0.1682424       -18.21431        -54.31846       -20.56155             -200               0             -200               0
1.48185                -0.172526       -18.37756        -54.10701       -22.56004             -200               0             -200               0
1.48845               -0.1768922        -18.5428        -53.87302       -24.58054             -200               0             -200               0
1.49505               -0.1813433       -18.71011        -53.61755       -26.64425             -200               0             -200               0
1.50165               -0.1858802       -18.87956        -53.34217       -28.77021             -200               0             -200               0
1.50825               -0.1905071       -19.05124        -53.04887        -30.9747             -200               0             -200               0
1.51485               -0.1952263       -19.22525        -52.73995       -33.27085             -200               0             -200               0
1.52145               -0.2000443       -19.40167        -52.41788       -35.66849             -200               0             -200               0
1.52805               -0.2049653        -19.5806        -52.08517       -38.17424             -200               0             -200               0
1.53465               -0.2099979       -19.76213        -51.74434       -40.79172             -200               0             -200               0
1.54125               -0.2151507       -19.94638        -51.39777       -43.52194             -200               0             -200               0
1.54785               -0.2204324       -20.13343        -51.04768       -46.36365             -200               0             -200               0
1.55446                -0.225856       -20.32339        -50.69609       -49.31378             -200               0             -200               0
1.56106               -0.2314324       -20.51635        -50.34481       -52.36783             -200               0             -200               0
1.56766                -0.237176        -20.7124        -49.99541       -55.52025             -200               0             -200               0
1.57426                -0.243101       -20.91163        -49.64925       -58.76473             -200               0             -200               0
1.58086               -0.2492238       -21.11414        -49.30747       -62.09453             -200               0             -200               0
1.58746               -0.2555608       -21.31999        -48.97103       -65.50257             -200               0             -200               0
1.59406               -0.2621292       -21.52926         -48.6407       -68.98171             -200               0             -200               0
1.60066                -0.268947       -21.74201        -48.31709       -72.52484             -200               0             -200               0
1.60726               -0.2760336       -21.95833        -48.00068       -76.12496             -200               0             -200               0
1.61386                -0.283408       -22.17824        -47.69182       -79.77524             -200               0             -200               0
1.62046               -0.2910876        -22.4018        -47.39073       -83.46912             -200               0             -200               0
1.62706               -0.2990933       -22.62906        -47.09757       -87.20026             -200               0             -200               0
1.63366               -0.3074433       -22.86006        -46.81237       -90.96263             -200               0             -200               0
1.64026                -0.316156       -23.09481        -46.53513       -94.75047             -200               0             -200               0
1.64686               -0.3252515       -23.33335        -46.26573       -98.55833             -200               0             -200               0
1.65347               -0.3347453        -23.5757        -46.00403        -102.381             -200               0             -200               0
1.66007               -0.3446548       -23.82189        -45.74982       -106.2137             -200               0             -200               0
1.66667               -0.3549976       -24.07193        -45.50283       -110.0517             -200               0             -200               0
1.67327               -0.3657895       -24.32585        -45.26276       -113.8907             -200               0             -200               0
1.67987               -0.3770448       -24.58366        -45.02925       -117.7268             -200               0             -200               0
1.68647               -0.3887779        -24.8454        -44.80192       -121.5562             -200               0             -200               0
1.69307               -0.4010048       -25.11109        -44.58032       -125.3755             -200               0             -200               0
1.69967               -0.4137372       -25.38077        -44.36399       -129.1816             -200               0             -200               0
1.70627               -0.4269894       -25.65449        -44.15242       -132.9716             -200               0             -200               0
1.71287               -0.4407731       -25.93229        -43.94509       -136.7432             -200               0             -200               0
1.71947               -0.4551015       -26.21424        -43.74141       -140.4941             -200               0             -200               0
1.72607               -0.4699893        -26.5004        -43.54081       -144.2227             -200               0             -200               0
1.73267               -0.4854491       -26.79085        -43.34267       -147.9276             -200               0             -200               0
1.73927               -0.5014964        -27.0857        -43.14636       -151.6078             -200               0             -200               0
1.74587               -0.5181452       -27.38503        -42.95123        -155.263             -200               0             -200               0
1.75248                -0.535414       -27.68898        -42.75663       -158.8929             -200               0             -200               0
1.75908               -0.5533203       -27.99766        -42.56191       -162.4981             -200               0             -200               0
1.76568               -0.5718841       -28.31122        -42.36642       -166.0794             -200               0             -200               0
1.77228               -0.5911303        -28.6298        -42.16953       -169.6382             -200               0             -200               0
1.77888               -0.6110831       -28.95356        -41.97065       -173.1763             -200               0             -200               0
1.78548               -0.6317695       -29.28268        -41.76919       -176.6962             -200               0             -200               0
1.79208               -0.6532224       -29.61731        -41.56464        179.7995             -200               0             -200               0
1.79868               -0.6754747       -29.95765        -41.35651        176.3076             -200               0             -200               0
1.80528               -0.6985644       -30.30388        -41.14439        172.8246             -200               0             -200               0
1.81188               -0.7225335       -30.65618        -40.92793        169.3466             -200               0             -200               0
1.81848               -0.7474279       -31.01474        -40.70686        165.8694             -200               0             -200               0
1.82508               -0.7732952       -31.37974        -40.48099        162.3889             -200               0             -200               0
1.83168               -0.8001908       -31.75137        -40.25019        158.9006             -200               0             -200               0
1.83828               -0.8281718       -32.12978        -40.01444        155.4001             -200               0             -200               0
1.84488               -0.8572982       -32.51516        -39.77379        151.8831             -200               0             -200               0
1.85149               -0.8876383       -32.90766        -39.52837        148.3452             -200               0             -200               0
1.85809               -0.9192601        -33.3074        -39.27839        144.7825             -200               0             -200               0
1.86469               -0.9522382       -33.71453         -39.0241         141.191             -200               0             -200               0
1.87129               -0.9866504       -34.12916        -38.76584        137.5674             -200               0             -200               0
1.87789                -1.022578       -34.55138          -38.504        133.9082             -200               0             -200               0
1.88449                -1.060108       -34.98126        -38.23899        130.2109             -200               0             -200               0
1.89109                -1.099328       -35.41885        -37.97128        126.4729             -200               0             -200               0
1.89769                -1.140331       -35.86418        -37.70134        122.6921             -200               0             -200               0
1.90429                -1.183213       -36.31728        -37.42968        118.8671             -200               0             -200               0
1.91089                -1.228073        -36.7781        -37.15679        114.9964             -200               0             -200               0
1.91749                -1.275016       -37.24662        -36.88318        111.0792             -200               0             -200               0
1.92409                -1.324145       -37.72276        -36.60936        107.1149             -200               0             -200               0
1.93069                 -1.37557       -38.20644        -36.33579        103.1034             -200               0             -200               0
1.93729                -1.429401       -38.69751        -36.06297        99.04466             -200               0             -200               0
1.94389                -1.485755       -39.19584        -35.79133        94.93905             -200               0             -200               0
1.9505                 -1.544747       -39.70124        -35.52131        90.78711             -200               0             -200               0
1.9571                 -1.606498       -40.21352        -35.25331        86.58961             -200               0             -200               0
1.9637                 -1.671131       -40.73242         -34.9877        82.34747             -200               0             -200               0
1.9703                 -1.738774       -41.25768        -34.72485        78.06177             -200               0             -200               0
1.9769                 -1.809554       -41.78901        -34.46507        73.73369             -200               0             -200               0
1.9835                 -1.883606       -42.32605        -34.20867        69.36453             -200               0             -200               0
1.9901                 -1.961064       -42.86847        -33.95593        64.95564             -200               0             -200               0
1.9967                  -2.04207       -43.41584        -33.70708        60.50845             -200               0             -200               0
2.0033                 -2.126766       -43.96774        -33.46235        56.02441             -200               0             -200               0
2.0099                 -2.215301       -44.52369        -33.22196        51.50499             -200               0             -200               0
2.0165                 -2.307828       -45.08317        -32.98609         46.9517             -200               0             -200               0
2.0231                 -2.404501       -45.64561        -32.75489        42.36602             -200               0             -200               0
2.0297                 -2.505485       -46.21042        -32.52852        37.74945             -200               0             -200               0
2.0363                 -2.610947       -46.77693         -32.3071        33.10347             -200               0             -200               0
2.0429                  -2.72106       -47.34443        -32.09075        28.42951             -200               0             -200               0
2.0495                 -2.836002       -47.91214        -31.87957        23.72903             -200               0             -200               0
2.05611                 -2.95596       -48.47922        -31.67365        19.00342             -200               0             -200               0
2.06271                -3.081125       -49.04478        -31.47305        14.25405             -200               0             -200               0
2.06931                -3.211698        -49.6078        -31.27785        9.482269             -200               0             -200               0
2.07591                -3.347885       -50.16723        -31.08809        4.689378             -200               0             -200               0
2.08251                -3.489903       -50.72188        -30.90383      -0.1233469             -200               0             -200               0
2.08911                -3.637974        -51.2705         -30.7251       -4.954672             -200               0             -200               0
2.09571                -3.792331       -51.81167        -30.55193       -9.803395             -200               0             -200               0
2.10231                -3.953213        -52.3439        -30.38435       -14.66834             -200               0             -200               0
2.10891                -4.120873       -52.86552        -30.22237       -19.54837             -200               0             -200               0
2.11551                -4.295568        -53.3747        -30.06602        -24.4424             -200               0             -200               0
2.12211                 -4.47757       -53.86947        -29.91529       -29.34933             -200               0             -200               0
2.12871                -4.667155       -54.34761         -29.7702       -34.26814             -200               0             -200               0
2.13531                -4.864613       -54.80674        -29.63074       -39.19781             -200               0             -200               0
2.14191                -5.070239        -55.2442        -29.49691       -44.13735             -200               0             -200               0
2.14851                -5.284341       -55.65707        -29.36871       -49.08579             -200               0             -200               0
2.15512                -5.507233       -56.04213        -29.24614       -54.04221             -200               0             -200               0
2.16172                -5.739234       -56.39581        -29.12917       -59.00568             -200               0             -200               0
2.16832                -5.980669       -56.71414        -29.01781       -63.97532             -200               0             -200               0
2.17492                -6.231869       -56.99275        -28.91203       -68.95025             -200               0             -200               0
2.18152                -6.493155       -57.22676        -28.81182       -73.92961             -200               0             -200               0
2.18812                -6.764853       -57.41074        -28.71717       -78.91256             -200               0             -200               0
2.19472                -7.047273       -57.53863        -28.62806       -83.89828             -200               0             -200               0
2.20132                -7.340703       -57.60369        -28.54446       -88.88597             -200               0             -200               0
2.20792                -7.645408       -57.59838        -28.46636        -93.8748             -200               0             -200               0
2.21452                -7.961604       -57.51423        -28.39374       -98.86401             -200               0             -200               0
2.22112                -8.289447       -57.34181        -28.32658       -103.8528             -200               0             -200               0
2.22772                -8.629008       -57.07056        -28.26484       -108.8404             -200               0             -200               0
2.23432                -8.980245       -56.68866        -28.20851       -113.8261             -200               0             -200               0
2.24092                -9.342957       -56.18296        -28.15756       -118.8091             -200               0             -200               0
2.24752                -9.716739       -55.53878        -28.11196       -123.7886             -200               0             -200               0
2.25413                -10.10092       -54.73998        -28.07169       -128.7639             -200               0             -200               0
2.26073                -10.49448        -53.7688        -28.03671       -133.7343             -200               0             -200               0
2.26733                -10.89594       -52.60605          -28.007        -138.699             -200               0             -200               0
2.27393                -11.30328       -51.23128        -27.98253       -143.6572             -200               0             -200               0
2.28053                -11.71376       -49.62328        -27.96325       -148.6082             -200               0             -200               0
2.28713                -12.12382       -47.76093        -27.94915       -153.5513             -200               0             -200               0
2.29373                -12.52889       -45.62435        -27.94017       -158.4857             -200               0             -200               0