! TOUCHSTONE file generated by CST MICROWAVE STUDIO
! Date and time: Sat Mar  8 13:54:24 2025
! Project name: non_fractured.cst
! Parameters = {B=2.5; D=160; F=20; Feed=2.85625; L=100; M=5; R=0.384908; S=2.5; Theta=0; length=57.125; wave=114.25}
! Header version: 2024
! Port assignment regex: !\s*Touchstone port\s*([0-9]+)\s*=\s*(CST MWS port|CST DES external port|CST DES block port)\s*(.+)\s* \(\"(.*)\"\)(\s*mode\s*([0-9]+))?.*
! Touchstone port assignment:
! Touchstone port 1 = CST MWS port 1 ("")
! Touchstone port 2 = CST MWS port 2 ("")
# GHz S DB R 50
1                    -0.01832191       -9.747517        -68.86075       -135.9495             -200               0             -200               0
1.0066               -0.01905086       -9.836313        -68.38473       -139.3712             -200               0             -200               0
1.0132               -0.01983667       -9.925571        -67.93479       -142.9318             -200               0             -200               0
1.0198               -0.02067527       -10.01526        -67.51086       -146.6061             -200               0             -200               0
1.0264                 -0.021564       -10.10535        -67.11265        -150.372             -200               0             -200               0
1.033                -0.02249752       -10.19581        -66.73969         -154.21             -200               0             -200               0
1.0396               -0.02347073       -10.28664        -66.39143       -158.1028             -200               0             -200               0
1.0462               -0.02447692       -10.37781        -66.06727        -162.035             -200               0             -200               0
1.05281              -0.02550909       -10.46934        -65.76656       -165.9925             -200               0             -200               0
1.05941              -0.02656155       -10.56122        -65.48865       -169.9626             -200               0             -200               0
1.06601              -0.02762731       -10.65347        -65.23287       -173.9332             -200               0             -200               0
1.07261              -0.02869856       -10.74612        -64.99855       -177.8933             -200               0             -200               0
1.07921              -0.02977054       -10.83918        -64.78502        178.1679             -200               0             -200               0
1.08581              -0.03083749       -10.93271        -64.59156        174.2607             -200               0             -200               0
1.09241              -0.03189358       -11.02675        -64.41746        170.3952             -200               0             -200               0
1.09901              -0.03293532       -11.12135        -64.26195        166.5813             -200               0             -200               0
1.10561              -0.03396056       -11.21656        -64.12421         162.829             -200               0             -200               0
1.11221              -0.03496752       -11.31245        -64.00336         159.148             -200               0             -200               0
1.11881              -0.03595592       -11.40908        -63.89841        155.5485             -200               0             -200               0
1.12541              -0.03692644       -11.50651        -63.80827        152.0404             -200               0             -200               0
1.13201              -0.03788137        -11.6048        -63.73167        148.6338             -200               0             -200               0
1.13861               -0.0388244       -11.70401        -63.66721        145.3387             -200               0             -200               0
1.14521              -0.03976151       -11.80421        -63.61325        142.1648             -200               0             -200               0
1.15182              -0.04069721       -11.90544        -63.56793        139.1217             -200               0             -200               0
1.15842              -0.04163825       -12.00776        -63.52913        136.2179             -200               0             -200               0
1.16502              -0.04259409       -12.11119        -63.49443        133.4613             -200               0             -200               0
1.17162              -0.04357196       -12.21578        -63.46114        130.8579             -200               0             -200               0
1.17822              -0.04458131       -12.32154        -63.42625        128.4121             -200               0             -200               0
1.18482              -0.04563035       -12.42849         -63.3865        126.1253             -200               0             -200               0
1.19142              -0.04673012       -12.53665        -63.33841        123.9958             -200               0             -200               0
1.19802              -0.04788736         -12.646        -63.27839         122.018             -200               0             -200               0
1.20462              -0.04911157       -12.75654        -63.20284         120.182             -200               0             -200               0
1.21122              -0.05041056       -12.86825        -63.10832        118.4731             -200               0             -200               0
1.21782              -0.05179076        -12.9811        -62.99175        116.8722             -200               0             -200               0
1.22442              -0.05325833       -13.09507        -62.85054         115.356             -200               0             -200               0
1.23102              -0.05481788       -13.21011        -62.68281        113.8977             -200               0             -200               0
1.23762              -0.05647336        -13.3262         -62.4875        112.4684             -200               0             -200               0
1.24422              -0.05822606       -13.44328        -62.26445        111.0385             -200               0             -200               0
1.25083              -0.06007573       -13.56133        -62.01439        109.5789             -200               0             -200               0
1.25743              -0.06202358       -13.68029        -61.73887        108.0628             -200               0             -200               0
1.26403              -0.06406562       -13.80014        -61.44012         106.467             -200               0             -200               0
1.27063              -0.06620023       -13.92085        -61.12092         104.772             -200               0             -200               0
1.27723               -0.0684204       -14.04238        -60.78435        102.9633             -200               0             -200               0
1.28383               -0.0707218       -14.16473        -60.43364        101.0306             -200               0             -200               0
1.29043              -0.07309747       -14.28787        -60.07204        98.96824             -200               0             -200               0
1.29703              -0.07554024       -14.41183        -59.70263         96.7742             -200               0             -200               0
1.30363              -0.07804266       -14.53659         -59.3283        94.44971             -200               0             -200               0
1.31023              -0.08059742        -14.6622        -58.95162        91.99861             -200               0             -200               0
1.31683              -0.08319566       -14.78866         -58.5749        89.42666             -200               0             -200               0
1.32343              -0.08583016       -14.91604        -58.20007        86.74102             -200               0             -200               0
1.33003              -0.08849561       -15.04438        -57.82881        83.94981             -200               0             -200               0
1.33663              -0.09118552       -15.17375        -57.46247        81.06166             -200               0             -200               0
1.34323              -0.09389398       -15.30422        -57.10216        78.08545             -200               0             -200               0
1.34984              -0.09661923       -15.43586        -56.74875        75.03007             -200               0             -200               0
1.35644              -0.09935838       -15.56877         -56.4029        71.90425             -200               0             -200               0
1.36304               -0.1021117       -15.70302        -56.06509        68.71644             -200               0             -200               0
1.36964               -0.1048791       -15.83873        -55.73565        65.47473             -200               0             -200               0
1.37624                -0.107665       -15.97597        -55.41475         62.1868             -200               0             -200               0
1.38284                -0.110473       -16.11485        -55.10248        58.85991             -200               0             -200               0
1.38944               -0.1133113       -16.25545        -54.79882        55.50084             -200               0             -200               0
1.39604                -0.116186       -16.39787        -54.50364        52.11594             -200               0             -200               0
1.40264               -0.1191069       -16.54218        -54.21676        48.71112             -200               0             -200               0
1.40924               -0.1220862       -16.68847        -53.93795        45.29181             -200               0             -200               0
1.41584               -0.1251356       -16.83679         -53.6669        41.86305             -200               0             -200               0
1.42244               -0.1282671       -16.98721        -53.40326        38.42943             -200               0             -200               0
1.42904               -0.1314954       -17.13978        -53.14664        34.99514             -200               0             -200               0
1.43564               -0.1348349       -17.29453        -52.89663        31.56395             -200               0             -200               0
1.44224               -0.1382977       -17.45149        -52.65276        28.13925             -200               0             -200               0
1.44884               -0.1418995       -17.61068        -52.41456        24.72401             -200               0             -200               0
1.45545               -0.1456536        -17.7721        -52.18153        21.32082             -200               0             -200               0
1.46205               -0.1495727       -17.93575        -51.95315        17.93187             -200               0             -200               0
1.46865               -0.1536686       -18.10161         -51.7289        14.55898             -200               0             -200               0
1.47525               -0.1579524       -18.26969        -51.50823        11.20355             -200               0             -200               0
1.48185               -0.1624321       -18.43994        -51.29061        7.866618             -200               0             -200               0
1.48845               -0.1671182       -18.61234        -51.07551         4.54882             -200               0             -200               0
1.49505               -0.1720151       -18.78687         -50.8624        1.250424             -200               0             -200               0
1.50165               -0.1771289        -18.9635        -50.65075       -2.028673             -200               0             -200               0
1.50825               -0.1824616       -19.14219        -50.44007       -5.288932             -200               0             -200               0
1.51485               -0.1880154       -19.32294        -50.22989       -8.531156             -200               0             -200               0
1.52145               -0.1937911       -19.50573        -50.01976       -11.75646             -200               0             -200               0
1.52805               -0.1997874       -19.69054        -49.80927       -14.96628             -200               0             -200               0
1.53465               -0.2060018       -19.87738        -49.59805       -18.16226             -200               0             -200               0
1.54125               -0.2124327       -20.06628        -49.38576       -21.34634             -200               0             -200               0
1.54785               -0.2190762       -20.25724        -49.17212        -24.5206             -200               0             -200               0
1.55446               -0.2259292       -20.45033        -48.95691       -27.68728             -200               0             -200               0
1.56106               -0.2329865       -20.64557        -48.73992       -30.84874             -200               0             -200               0
1.56766               -0.2402479       -20.84306        -48.52104       -34.00736             -200               0             -200               0
1.57426               -0.2477077       -21.04286        -48.30018       -37.16557             -200               0             -200               0
1.58086               -0.2553679       -21.24508         -48.0773       -40.32573             -200               0             -200               0
1.58746                -0.263228       -21.44981        -47.85241       -43.49014             -200               0             -200               0
1.59406               -0.2712902       -21.65719        -47.62559       -46.66098             -200               0             -200               0
1.60066               -0.2795582       -21.86733        -47.39692       -49.84029             -200               0             -200               0
1.60726               -0.2880397       -22.08039        -47.16654        -53.0299             -200               0             -200               0
1.61386               -0.2967438       -22.29648        -46.93461       -56.23146             -200               0             -200               0
1.62046               -0.3056816       -22.51578        -46.70131        -59.4464             -200               0             -200               0
1.62706               -0.3148684       -22.73841        -46.46686       -62.67588             -200               0             -200               0
1.63366                -0.324321       -22.96453        -46.23146       -65.92087             -200               0             -200               0
1.64026               -0.3340601       -23.19427        -45.99536       -69.18205             -200               0             -200               0
1.64686               -0.3441089       -23.42777        -45.75876       -72.45989             -200               0             -200               0
1.65347               -0.3544906       -23.66517        -45.52191       -75.75462             -200               0             -200               0
1.66007                -0.365234       -23.90656        -45.28501       -79.06628             -200               0             -200               0
1.66667               -0.3763696       -24.15206        -45.04828       -82.39467             -200               0             -200               0
1.67327               -0.3879277       -24.40175        -44.81191       -85.73944             -200               0             -200               0
1.67987               -0.3999408        -24.6557        -44.57607       -89.10006             -200               0             -200               0
1.68647                -0.412444       -24.91397        -44.34091       -92.47589             -200               0             -200               0
1.69307                 -0.42547       -25.17659        -44.10657       -95.86613             -200               0             -200               0
1.69967               -0.4390541       -25.44359        -43.87316       -99.26992             -200               0             -200               0
1.70627               -0.4532306       -25.71497        -43.64076       -102.6863             -200               0             -200               0
1.71287                -0.468034       -25.99072        -43.40943       -106.1144             -200               0             -200               0
1.71947               -0.4834961       -26.27081         -43.1792        -109.553             -200               0             -200               0
1.72607               -0.4996498        -26.5552        -42.95009       -113.0013             -200               0             -200               0
1.73267               -0.5165247       -26.84383        -42.72208       -116.4581             -200               0             -200               0
1.73927                -0.534149       -27.13666        -42.49513       -119.9226             -200               0             -200               0
1.74587               -0.5525499        -27.4336        -42.26918       -123.3939             -200               0             -200               0
1.75248               -0.5717512        -27.7346        -42.04415       -126.8711             -200               0             -200               0
1.75908               -0.5917761       -28.03957        -41.81994       -130.3534             -200               0             -200               0
1.76568               -0.6126431       -28.34846        -41.59642       -133.8404             -200               0             -200               0
1.77228               -0.6343721       -28.66119        -41.37347       -137.3313             -200               0             -200               0
1.77888               -0.6569783       -28.97772        -41.15094        -140.826             -200               0             -200               0
1.78548               -0.6804763       -29.29801        -40.92868       -144.3241             -200               0             -200               0
1.79208               -0.7048808       -29.62201        -40.70651       -147.8254             -200               0             -200               0
1.79868               -0.7302035       -29.94972        -40.48428       -151.3302             -200               0             -200               0
1.80528               -0.7564567       -30.28115        -40.26182       -154.8386             -200               0             -200               0
1.81188               -0.7836532       -30.61632        -40.03895       -158.3509             -200               0             -200               0
1.81848               -0.8118049       -30.95529        -39.81551       -161.8678             -200               0             -200               0
1.82508               -0.8409271       -31.29811        -39.59136       -165.3898             -200               0             -200               0
1.83168               -0.8710358       -31.64488        -39.36633       -168.9178             -200               0             -200               0
1.83828               -0.9021471       -31.99572         -39.1403       -172.4527             -200               0             -200               0
1.84488               -0.9342842       -32.35075        -38.91315       -175.9957             -200               0             -200               0
1.85149               -0.9674736       -32.71012        -38.68478       -179.5479             -200               0             -200               0
1.85809                -1.001741       -33.07401        -38.45511        176.8894             -200               0             -200               0
1.86469                -1.037124       -33.44259        -38.22408        173.3148             -200               0             -200               0
1.87129                -1.073659       -33.81607        -37.99166        169.7269             -200               0             -200               0
1.87789                -1.111394       -34.19463        -37.75782        166.1242             -200               0             -200               0
1.88449                -1.150378       -34.57847        -37.52259        162.5052             -200               0             -200               0
1.89109                -1.190668       -34.96781        -37.28601        158.8684             -200               0             -200               0
1.89769                 -1.23233       -35.36283        -37.04812        155.2124             -200               0             -200               0
1.90429                -1.275433       -35.76371        -36.80901        151.5357             -200               0             -200               0
1.91089                -1.320054       -36.17063        -36.56878        147.8368             -200               0             -200               0
1.91749                -1.366278       -36.58372        -36.32757        144.1145             -200               0             -200               0
1.92409                -1.414194       -37.00311        -36.08552        140.3675             -200               0             -200               0
1.93069                -1.463899       -37.42889        -35.84278        136.5946             -200               0             -200               0
1.93729                -1.515495       -37.86111        -35.59954        132.7948             -200               0             -200               0
1.94389                 -1.56909        -38.2998        -35.35599        128.9672             -200               0             -200               0
1.9505                 -1.624796       -38.74492        -35.11232        125.1108             -200               0             -200               0
1.9571                 -1.682731       -39.19642        -34.86875        121.2251             -200               0             -200               0
1.9637                 -1.743015       -39.65416         -34.6255        117.3093             -200               0             -200               0
1.9703                 -1.805774         -40.118        -34.38278        113.3631             -200               0             -200               0
1.9769                 -1.871135       -40.58771        -34.14083        109.3862             -200               0             -200               0
1.9835                 -1.939226       -41.06303        -33.89985        105.3782             -200               0             -200               0
1.9901                 -2.010181       -41.54363        -33.66009        101.3391             -200               0             -200               0
1.9967                 -2.084129       -42.02914        -33.42175        97.26883             -200               0             -200               0
2.0033                 -2.161207       -42.51914        -33.18506        93.16756             -200               0             -200               0
2.0099                 -2.241545       -43.01314        -32.95023        89.03547             -200               0             -200               0
2.0165                 -2.325277       -43.51063        -32.71746        84.87282             -200               0             -200               0
2.0231                 -2.412536       -44.01103        -32.48696           80.68             -200               0             -200               0
2.0297                 -2.503452       -44.51373         -32.2589        76.45743             -200               0             -200               0
2.0363                 -2.598159       -45.01804        -32.03349        72.20563             -200               0             -200               0
2.0429                 -2.696782       -45.52327        -31.81088        67.92515             -200               0             -200               0
2.0495                 -2.799453       -46.02868        -31.59125        63.61663             -200               0             -200               0
2.05611                -2.906298       -46.53346        -31.37475        59.28071             -200               0             -200               0
2.06271                -3.017445       -47.03682        -31.16154         54.9181             -200               0             -200               0
2.06931                -3.133019       -47.53788        -30.95174        50.52954             -200               0             -200               0
2.07591                -3.253146       -48.03577        -30.74549        46.11578             -200               0             -200               0
2.08251                -3.377956       -48.52955        -30.54292        41.67762             -200               0             -200               0
2.08911                -3.507575       -49.01828        -30.34413        37.21585             -200               0             -200               0
2.09571                -3.642135       -49.50097        -30.14923         32.7313             -200               0             -200               0
2.10231                -3.781768       -49.97662        -29.95831        28.22478             -200               0             -200               0
2.10891                -3.926612       -50.44415        -29.77147        23.69715             -200               0             -200               0
2.11551                -4.076811       -50.90247         -29.5888        19.14922             -200               0             -200               0
2.12211                -4.232512       -51.35046        -29.41035        14.58185             -200               0             -200               0
2.12871                -4.393873        -51.7869        -29.23621        9.995869             -200               0             -200               0
2.13531                -4.561057       -52.21056        -29.06644        5.392105             -200               0             -200               0
2.14191                -4.734243       -52.62011         -28.9011        0.771396             -200               0             -200               0
2.14851                -4.913616       -53.01415        -28.74023       -3.865439             -200               0             -200               0
2.15512                -5.099378       -53.39119        -28.58389       -8.517582             -200               0             -200               0
2.16172                -5.291746        -53.7496        -28.43211       -13.18423             -200               0             -200               0
2.16832                -5.490953       -54.08764        -28.28494       -17.86457             -200               0             -200               0
2.17492                -5.697248       -54.40339        -28.14241       -22.55783             -200               0             -200               0
2.18152                -5.910903       -54.69474        -28.00454       -27.26323             -200               0             -200               0
2.18812                -6.132209       -54.95938        -27.87138       -31.97999             -200               0             -200               0
2.19472                -6.361481       -55.19469        -27.74293       -36.70736             -200               0             -200               0
2.20132                -6.599051        -55.3978        -27.61921       -41.44458             -200               0             -200               0
2.20792                -6.845281       -55.56541        -27.50025       -46.19093             -200               0             -200               0
2.21452                -7.100554       -55.69386        -27.38606       -50.94567             -200               0             -200               0
2.22112                -7.365275       -55.77893        -27.27665       -55.70809             -200               0             -200               0
2.22772                -7.639865       -55.81589        -27.17204       -60.47748             -200               0             -200               0
2.23432                 -7.92477       -55.79926        -27.07221       -65.25313             -200               0             -200               0
2.24092                -8.220442       -55.72281        -26.97719       -70.03437             -200               0             -200               0
2.24752                -8.527339       -55.57941        -26.88698       -74.82051             -200               0             -200               0
2.25413                -8.845913       -55.36084        -26.80157       -79.61086             -200               0             -200               0
2.26073                 -9.17659       -55.05762        -26.72097       -84.40478             -200               0             -200               0
2.26733                -9.519759       -54.65887        -26.64518        -89.2016             -200               0             -200               0
2.27393                -9.875727       -54.15206        -26.57418       -94.00066             -200               0             -200               0
2.28053                -10.24469       -53.52273        -26.50798       -98.80133             -200               0             -200               0
2.28713                -10.62667        -52.7543        -26.44658        -103.603             -200               0             -200               0
2.29373                -11.02144       -51.82775        -26.38995       -108.4049             -200               0             -200               0