! TOUCHSTONE file generated by CST MICROWAVE STUDIO
! Date and time: Sat Mar  8 13:54:53 2025
! Project name: non_fractured.cst
! Parameters = {B=2.5; D=160; F=20; Feed=2.85625; L=100; M=10; R=0.384908; S=1.5; Theta=90; length=57.125; wave=114.25}
! Header version: 2024
! Port assignment regex: !\s*Touchstone port\s*([0-9]+)\s*=\s*(CST MWS port|CST DES external port|CST DES block port)\s*(.+)\s* \(\"(.*)\"\)(\s*mode\s*([0-9]+))?.*
! Touchstone port assignment:
! Touchstone port 1 = CST MWS port 1 ("")
! Touchstone port 2 = CST MWS port 2 ("")
# GHz S DB R 50
1                    -0.01802343       -9.742908        -69.73341       -142.7257             -200               0             -200               0
1.0066               -0.01887212       -9.831592        -69.44828       -145.9141             -200               0             -200               0
1.0132               -0.01977319       -9.920596        -69.17969       -149.1055             -200               0             -200               0
1.0198               -0.02071823       -10.00989        -68.92706       -152.2875             -200               0             -200               0
1.0264                -0.0217017       -10.09947        -68.68969       -155.4483             -200               0             -200               0
1.033                -0.02271414       -10.18931        -68.46673       -158.5767             -200               0             -200               0
1.0396               -0.02374696       -10.27943        -68.25723       -161.6621             -200               0             -200               0
1.0462               -0.02479313       -10.36984        -68.06007       -164.6943             -200               0             -200               0
1.05281              -0.02584397       -10.46057        -67.87404       -167.6639             -200               0             -200               0
1.05941              -0.02689251       -10.55164        -67.69772       -170.5621             -200               0             -200               0
1.06601              -0.02793096       -10.64309        -67.52957       -173.3809             -200               0             -200               0
1.07261              -0.02895384       -10.73499        -67.36788       -176.1132             -200               0             -200               0
1.07921              -0.02995552       -10.82739        -67.21075       -178.7532             -200               0             -200               0
1.08581              -0.03093419       -10.92035        -67.05615        178.7038             -200               0             -200               0
1.09241              -0.03188744       -11.01394         -66.9019        176.2607             -200               0             -200               0
1.09901              -0.03281435       -11.10823        -66.74568        173.9182             -200               0             -200               0
1.10561              -0.03371695        -11.2033        -66.58511        171.6754             -200               0             -200               0
1.11221              -0.03459683        -11.2992        -66.41779        169.5284             -200               0             -200               0
1.11881              -0.03545971       -11.39601        -66.24134         167.471             -200               0             -200               0
1.12541              -0.03631094        -11.4938        -66.05351        165.4943             -200               0             -200               0
1.13201              -0.03715706       -11.59261        -65.85227        163.5868             -200               0             -200               0
1.13861              -0.03800693        -11.6925        -65.63587        161.7346             -200               0             -200               0
1.14521              -0.03886952       -11.79351        -65.40294        159.9219             -200               0             -200               0
1.15182              -0.03975419       -11.89566        -65.15257        158.1312             -200               0             -200               0
1.15842              -0.04067219       -11.99899        -64.88432        156.3446             -200               0             -200               0
1.16502              -0.04163346       -12.10349        -64.59824        154.5439             -200               0             -200               0
1.17162              -0.04264725       -12.20917        -64.29488        152.7115             -200               0             -200               0
1.17822              -0.04372477       -12.31602        -63.97524        150.8314             -200               0             -200               0
1.18482              -0.04487434       -12.42402        -63.64068        148.8891             -200               0             -200               0
1.19142              -0.04610519       -12.53314        -63.29286        146.8727             -200               0             -200               0
1.19802              -0.04742267       -12.64334        -62.93363        144.7724             -200               0             -200               0
1.20462              -0.04883429       -12.75457        -62.56497        142.5812             -200               0             -200               0
1.21122              -0.05034272        -12.8668         -62.1889        140.2945             -200               0             -200               0
1.21782              -0.05195165       -12.97997        -61.80739        137.9098             -200               0             -200               0
1.22442              -0.05366182       -13.09403        -61.42234        135.4267             -200               0             -200               0
1.23102              -0.05547176       -13.20893        -61.03551        132.8466             -200               0             -200               0
1.23762              -0.05737997       -13.32462        -60.64851        130.1723             -200               0             -200               0
1.24422              -0.05938167       -13.44106        -60.26278        127.4074             -200               0             -200               0
1.25083               -0.0614713       -13.55821        -59.87958        124.5568             -200               0             -200               0
1.25743              -0.06364201       -13.67605            -59.5        121.6258             -200               0             -200               0
1.26403              -0.06588693       -13.79456        -59.12497        118.6199             -200               0             -200               0
1.27063              -0.06819693       -13.91373        -58.75524        115.5453             -200               0             -200               0
1.27723              -0.07056169       -14.03356        -58.39145        112.4078             -200               0             -200               0
1.28383              -0.07297271       -14.15407        -58.03409        109.2136             -200               0             -200               0
1.29043               -0.0754206        -14.2753        -57.68352        105.9685             -200               0             -200               0
1.29703              -0.07789635       -14.39728        -57.34001        102.6782             -200               0             -200               0
1.30363              -0.08039079       -14.52007        -57.00374        99.34849             -200               0             -200               0
1.31023              -0.08289738       -14.64373         -56.6748        95.98452             -200               0             -200               0
1.31683              -0.08540963       -14.76835        -56.35319        92.59141             -200               0             -200               0
1.32343              -0.08792181       -14.89399        -56.03888        89.17396             -200               0             -200               0
1.33003              -0.09043286       -15.02076        -55.73175        85.73668             -200               0             -200               0
1.33663              -0.09294053       -15.14875        -55.43165        82.28381             -200               0             -200               0
1.34323              -0.09544506       -15.27807        -55.13838        78.81929             -200               0             -200               0
1.34984               -0.0979501        -15.4088        -54.85169        75.34677             -200               0             -200               0
1.35644               -0.1004603       -15.54107        -54.57131        71.86962             -200               0             -200               0
1.36304               -0.1029827       -15.67495        -54.29694         68.3909             -200               0             -200               0
1.36964               -0.1055248       -15.81055        -54.02824         64.9134             -200               0             -200               0
1.37624               -0.1080981       -15.94795        -53.76487         61.4396             -200               0             -200               0
1.38284               -0.1107139       -16.08723        -53.50644        57.97171             -200               0             -200               0
1.38944               -0.1133856       -16.22845        -53.25257        54.51163             -200               0             -200               0
1.39604               -0.1161269       -16.37166        -53.00287        51.06097             -200               0             -200               0
1.40264               -0.1189518       -16.51692        -52.75692        47.62107             -200               0             -200               0
1.40924                -0.121877       -16.66426        -52.51432        44.19296             -200               0             -200               0
1.41584               -0.1249152       -16.81367        -52.27465        40.77738             -200               0             -200               0
1.42244               -0.1280832       -16.96519         -52.0375         37.3748             -200               0             -200               0
1.42904               -0.1313934        -17.1188        -51.80247        33.98542             -200               0             -200               0
1.43564               -0.1348601       -17.27448        -51.56917        30.60913             -200               0             -200               0
1.44224               -0.1384933        -17.4322        -51.33723         27.2456             -200               0             -200               0
1.44884               -0.1423046       -17.59194        -51.10627        23.89424             -200               0             -200               0
1.45545                -0.146302       -17.75366        -50.87597        20.55422             -200               0             -200               0
1.46205               -0.1504919        -17.9173        -50.64602        17.22452             -200               0             -200               0
1.46865               -0.1548792       -18.08282        -50.41612        13.90391             -200               0             -200               0
1.47525               -0.1594656       -18.25019        -50.18604        10.59102             -200               0             -200               0
1.48185               -0.1642545       -18.41936        -49.95555        7.284317             -200               0             -200               0
1.48845               -0.1692423       -18.59029        -49.72447        3.982187             -200               0             -200               0
1.49505               -0.1744276       -18.76297        -49.49265       0.6829251             -200               0             -200               0
1.50165               -0.1798052       -18.93737        -49.25998       -2.615208             -200               0             -200               0
1.50825               -0.1853705       -19.11349        -49.02641       -5.913971             -200               0             -200               0
1.51485                -0.191116       -19.29134        -48.79188       -9.215098             -200               0             -200               0
1.52145               -0.1970357       -19.47095        -48.55639       -12.52028             -200               0             -200               0
1.52805                -0.203121       -19.65235        -48.31998       -15.83112             -200               0             -200               0
1.53465               -0.2093663        -19.8356        -48.08271       -19.14913             -200               0             -200               0
1.54125               -0.2157629       -20.02077        -47.84467       -22.47569             -200               0             -200               0
1.54785               -0.2223085       -20.20795        -47.60597       -25.81206             -200               0             -200               0
1.55446               -0.2289958       -20.39725        -47.36673        -29.1593             -200               0             -200               0
1.56106               -0.2358227       -20.58877         -47.1271       -32.51835             -200               0             -200               0
1.56766               -0.2427903       -20.78265        -46.88725       -35.88994             -200               0             -200               0
1.57426               -0.2498998       -20.97903        -46.64734       -39.27464             -200               0             -200               0
1.58086               -0.2571536       -21.17806        -46.40754       -42.67282             -200               0             -200               0
1.58746               -0.2645617       -21.37987        -46.16803       -46.08471             -200               0             -200               0
1.59406               -0.2721299       -21.58464        -45.92896       -49.51033             -200               0             -200               0
1.60066               -0.2798757       -21.79252        -45.69051       -52.94957             -200               0             -200               0
1.60726               -0.2878103       -22.00365        -45.45282       -56.40215             -200               0             -200               0
1.61386               -0.2959549       -22.21818        -45.21605       -59.86765             -200               0             -200               0
1.62046               -0.3043294       -22.43626        -44.98031       -63.34555             -200               0             -200               0
1.62706               -0.3129574       -22.65801        -44.74572       -66.83521             -200               0             -200               0
1.63366               -0.3218638       -22.88355        -44.51238       -70.33588             -200               0             -200               0
1.64026                -0.331076       -23.11298        -44.28035       -73.84675             -200               0             -200               0
1.64686               -0.3406228       -23.34639        -44.04971       -77.36695             -200               0             -200               0
1.65347               -0.3505329       -23.58385        -43.82048       -80.89557             -200               0             -200               0
1.66007               -0.3608375       -23.82541        -43.59267       -84.43166             -200               0             -200               0
1.66667               -0.3715661       -24.07112        -43.36629       -87.97427             -200               0             -200               0
1.67327               -0.3827488       -24.32099        -43.14131       -91.52248             -200               0             -200               0
1.67987               -0.3944161       -24.57504        -42.91768       -95.07535             -200               0             -200               0
1.68647               -0.4065952       -24.83325        -42.69534       -98.63202             -200               0             -200               0
1.69307               -0.4193132       -25.09561        -42.47419       -102.1917             -200               0             -200               0
1.69967               -0.4325955        -25.3621        -42.25414       -105.7535             -200               0             -200               0
1.70627               -0.4464668       -25.63269        -42.03506        -109.317             -200               0             -200               0
1.71287               -0.4609469       -25.90732        -41.81682       -112.8814             -200               0             -200               0
1.71947               -0.4760562       -26.18599        -41.59928       -116.4463             -200               0             -200               0
1.72607                -0.491815       -26.46864        -41.38226       -120.0115             -200               0             -200               0
1.73267               -0.5082341       -26.75525        -41.16561       -123.5766             -200               0             -200               0
1.73927               -0.5253316        -27.0458        -40.94915       -127.1416             -200               0             -200               0
1.74587               -0.5431184       -27.34029        -40.73268       -130.7067             -200               0             -200               0
1.75248               -0.5616062       -27.63873        -40.51604       -134.2719             -200               0             -200               0
1.75908               -0.5808055       -27.94113        -40.29904       -137.8376             -200               0             -200               0
1.76568               -0.6007279       -28.24755        -40.08149       -141.4045             -200               0             -200               0
1.77228               -0.6213828       -28.55803        -39.86322       -144.9731             -200               0             -200               0
1.77888               -0.6427818       -28.87268        -39.64408       -148.5443             -200               0             -200               0
1.78548                 -0.66494        -29.1916        -39.42389       -152.1189             -200               0             -200               0
1.79208               -0.6878723       -29.51491        -39.20253       -155.6982             -200               0             -200               0
1.79868               -0.7115955       -29.84277        -38.97987       -159.2833             -200               0             -200               0
1.80528               -0.7361316       -30.17533        -38.75581       -162.8755             -200               0             -200               0
1.81188               -0.7615057       -30.51279        -38.53025       -166.4763             -200               0             -200               0
1.81848               -0.7877486       -30.85535        -38.30314        -170.087             -200               0             -200               0
1.82508               -0.8148943        -31.2032        -38.07444       -173.7093             -200               0             -200               0
1.83168               -0.8429838       -31.55656        -37.84412       -177.3446             -200               0             -200               0
1.83828               -0.8720623       -31.91566        -37.61221        179.0053             -200               0             -200               0
1.84488               -0.9021821       -32.28072        -37.37873        175.3389             -200               0             -200               0
1.85149               -0.9334014       -32.65193        -37.14374        171.6547             -200               0             -200               0
1.85809               -0.9657863        -33.0295        -36.90732        167.9511             -200               0             -200               0
1.86469               -0.9994039       -33.41361        -36.66958        164.2265             -200               0             -200               0
1.87129                -1.034335       -33.80442        -36.43064        160.4796             -200               0             -200               0
1.87789                -1.070659       -34.20206        -36.19065        156.7091             -200               0             -200               0
1.88449                -1.108466       -34.60664        -35.94976        152.9136             -200               0             -200               0
1.89109                -1.147847       -35.01822        -35.70816        149.0921             -200               0             -200               0
1.89769                -1.188901       -35.43684        -35.46604        145.2435             -200               0             -200               0
1.90429                -1.231729       -35.86249         -35.2236        141.3669             -200               0             -200               0
1.91089                -1.276437       -36.29509        -34.98106        137.4615             -200               0             -200               0
1.91749                -1.323132       -36.73457        -34.73862        133.5267             -200               0             -200               0
1.92409                -1.371924       -37.18075        -34.49653         129.562             -200               0             -200               0
1.93069                -1.422923       -37.63345          -34.255        125.5669             -200               0             -200               0
1.93729                 -1.47624       -38.09242        -34.01427        121.5411             -200               0             -200               0
1.94389                -1.531988       -38.55735        -33.77456        117.4845             -200               0             -200               0
1.9505                 -1.590277       -39.02791        -33.53609         113.397             -200               0             -200               0
1.9571                 -1.651215       -39.50372        -33.29909        109.2786             -200               0             -200               0
1.9637                 -1.714912       -39.98433        -33.06378        105.1295             -200               0             -200               0
1.9703                  -1.78147       -40.46928        -32.83037          100.95             -200               0             -200               0
1.9769                 -1.850996       -40.95806        -32.59905        96.74029             -200               0             -200               0
1.9835                 -1.923584       -41.45014        -32.37003        92.50084             -200               0             -200               0
1.9901                 -1.999331       -41.94494         -32.1435        88.23209             -200               0             -200               0
1.9967                 -2.078333       -42.44187        -31.91963        83.93458             -200               0             -200               0
2.0033                 -2.160676       -42.94032         -31.6986        79.60888             -200               0             -200               0
2.0099                 -2.246448       -43.43966        -31.48057        75.25564             -200               0             -200               0
2.0165                 -2.335733       -43.93924        -31.26569        70.87552             -200               0             -200               0
2.0231                 -2.428608       -44.43843        -31.05411        66.46922             -200               0             -200               0
2.0297                 -2.525155       -44.93654        -30.84596        62.03749             -200               0             -200               0
2.0363                 -2.625452       -45.43293        -30.64136         57.5811             -200               0             -200               0
2.0429                 -2.729573       -45.92695        -30.44045        53.10082             -200               0             -200               0
2.0495                 -2.837596       -46.41792        -30.24332        48.59746             -200               0             -200               0
2.05611                  -2.9496       -46.90522        -30.05008        44.07181             -200               0             -200               0
2.06271                -3.065664       -47.38818        -29.86083        39.52472             -200               0             -200               0
2.06931                -3.185873       -47.86616        -29.67565          34.957             -200               0             -200               0
2.07591                -3.310315       -48.33853        -29.49463        30.36947             -200               0             -200               0
2.08251                -3.439084       -48.80463        -29.31783        25.76297             -200               0             -200               0
2.08911                -3.572282       -49.26382        -29.14532        21.13832             -200               0             -200               0
2.09571                 -3.71002       -49.71544        -28.97717        16.49634             -200               0             -200               0
2.10231                -3.852418       -50.15881        -28.81344        11.83785             -200               0             -200               0
2.10891                -3.999609       -50.59322        -28.65417        7.163671             -200               0             -200               0
2.11551                -4.151738       -51.01794        -28.49941        2.474595             -200               0             -200               0
2.12211                -4.308967       -51.43216        -28.34921       -2.228577             -200               0             -200               0
2.12871                -4.471469       -51.83501        -28.20359       -6.945057             -200               0             -200               0
2.13531                -4.639439       -52.22557         -28.0626       -11.67407             -200               0             -200               0
2.14191                -4.813088       -52.60279        -27.92627       -16.41484             -200               0             -200               0
2.14851                -4.992648        -52.9655        -27.79462       -21.16662             -200               0             -200               0
2.15512                 -5.17837       -53.31238        -27.66766       -25.92865             -200               0             -200               0
2.16172                -5.370526       -53.64196        -27.54544        -30.7002             -200               0             -200               0
2.16832                -5.569413       -53.95255        -27.42796       -35.48052             -200               0             -200               0
2.17492                -5.775347       -54.24222        -27.31523        -40.2689             -200               0             -200               0
2.18152                -5.988668       -54.50877        -27.20727       -45.06463             -200               0             -200               0
2.18812                -6.209737       -54.74969        -27.10409       -49.86701             -200               0             -200               0
2.19472                -6.438938       -54.96212         -27.0057       -54.67533             -200               0             -200               0
2.20132                -6.676673       -55.14273         -26.9121        -59.4889             -200               0             -200               0
2.20792                -6.923366       -55.28779        -26.82329       -64.30706             -200               0             -200               0
2.21452                -7.179456       -55.39298        -26.73929       -69.12912             -200               0             -200               0
2.22112                -7.445388       -55.45335        -26.66009       -73.95441             -200               0             -200               0
2.22772                -7.721623       -55.46328        -26.58568       -78.78227             -200               0             -200               0
2.23432                -8.008613        -55.4163        -26.51607       -83.61205             -200               0             -200               0
2.24092                -8.306805       -55.30504        -26.45125        -88.4431             -200               0             -200               0
2.24752                -8.616618       -55.12107        -26.39122       -93.27476             -200               0             -200               0
2.25413                 -8.93843       -54.85477        -26.33596       -98.10639             -200               0             -200               0
2.26073                -9.272555       -54.49513        -26.28547       -102.9373             -200               0             -200               0
2.26733                -9.619209       -54.02965        -26.23975        -107.767             -200               0             -200               0
2.27393                -9.978469       -53.44405        -26.19877       -112.5947             -200               0             -200               0
2.28053                -10.35021       -52.72215        -26.16253       -117.4198             -200               0             -200               0
2.28713                -10.73405       -51.84569        -26.13101       -122.2418             -200               0             -200               0
2.29373                -11.12924       -50.79419        -26.10419       -127.0598             -200               0             -200               0