! TOUCHSTONE file generated by CST MICROWAVE STUDIO
! Date and time: Sat Mar  8 13:54:00 2025
! Project name: non_fractured.cst
! Parameters = {B=2.5; D=160; F=10; Feed=2.85625; L=100; M=5; R=0.384908; S=1; Theta=90; length=57.125; wave=114.25}
! Header version: 2024
! Port assignment regex: !\s*Touchstone port\s*([0-9]+)\s*=\s*(CST MWS port|CST DES external port|CST DES block port)\s*(.+)\s* \(\"(.*)\"\)(\s*mode\s*([0-9]+))?.*
! Touchstone port assignment:
! Touchstone port 1 = CST MWS port 1 ("")
! Touchstone port 2 = CST MWS port 2 ("")
# GHz S DB R 50
1                     -0.0195536       -9.734193        -67.14902       -101.5012             -200               0             -200               0
1.00658              -0.02001511       -9.821113        -66.58247        -106.788             -200               0             -200               0
1.01316              -0.02049478       -9.908791        -66.06573       -112.0705             -200               0             -200               0
1.01974              -0.02100204        -9.99723        -65.59458       -117.3404             -200               0             -200               0
1.02632              -0.02153862       -10.08642        -65.16555       -122.5904             -200               0             -200               0
1.03289              -0.02211218       -10.17637        -64.77579        -127.814             -200               0             -200               0
1.03947              -0.02272643       -10.26704         -64.4229        -133.005             -200               0             -200               0
1.04605              -0.02338182       -10.35842        -64.10488       -138.1577             -200               0             -200               0
1.05263              -0.02408546        -10.4505        -63.82007       -143.2662             -200               0             -200               0
1.05921              -0.02483654       -10.54324        -63.56706       -148.3246             -200               0             -200               0
1.06579              -0.02563528       -10.63663        -63.34466       -153.3267             -200               0             -200               0
1.07237              -0.02648423       -10.73063        -63.15187        -158.266             -200               0             -200               0
1.07895              -0.02738047       -10.82522        -62.98782       -163.1355             -200               0             -200               0
1.08553              -0.02832109       -10.92039         -62.8518       -167.9274             -200               0             -200               0
1.09211              -0.02930584        -11.0161        -62.74315       -172.6333             -200               0             -200               0
1.09868              -0.03032838       -11.11235        -62.66129       -177.2437             -200               0             -200               0
1.10526              -0.03138553       -11.20913        -62.60567        178.2518             -200               0             -200               0
1.11184              -0.03247109       -11.30644        -62.57572         173.865             -200               0             -200               0
1.11842              -0.03358145       -11.40427        -62.57083        169.6092             -200               0             -200               0
1.125                -0.03471059       -11.50265        -62.59028        165.4991             -200               0             -200               0
1.13158              -0.03585009       -11.60159        -62.63318        161.5514             -200               0             -200               0
1.13816              -0.03699809       -11.70113        -62.69836        157.7846             -200               0             -200               0
1.14474              -0.03814785       -11.80128        -62.78433        154.2194             -200               0             -200               0
1.15132              -0.03929526       -11.90211        -62.88907        150.8783             -200               0             -200               0
1.15789               -0.0404346       -12.00365        -63.00993        147.7854             -200               0             -200               0
1.16447              -0.04156506       -12.10597        -63.14342        144.9664             -200               0             -200               0
1.17105              -0.04268299       -12.20912        -63.28498        142.4466             -200               0             -200               0
1.17763               -0.0437904       -12.31317        -63.42885          140.25             -200               0             -200               0
1.18421              -0.04488538       -12.41819        -63.56782        138.3966             -200               0             -200               0
1.19079              -0.04596914       -12.52423        -63.69322        136.8991             -200               0             -200               0
1.19737              -0.04704911       -12.63138        -63.79501        135.7583             -200               0             -200               0
1.20395              -0.04812547       -12.73969        -63.86221        134.9593             -200               0             -200               0
1.21053              -0.04920606       -12.84924        -63.88362        134.4669             -200               0             -200               0
1.21711              -0.05029866       -12.96008        -63.84897        134.2241             -200               0             -200               0
1.22368              -0.05140992       -13.07225        -63.75019        134.1532             -200               0             -200               0
1.23026              -0.05254879       -13.18582        -63.58259        134.1615             -200               0             -200               0
1.23684              -0.05372826       -13.30082        -63.34565          134.15             -200               0             -200               0
1.24342               -0.0549557       -13.41727         -63.0431        134.0242             -200               0             -200               0
1.25                 -0.05624358        -13.5352        -62.68221        133.7032             -200               0             -200               0
1.25658              -0.05760256       -13.65463         -62.2727        133.1265             -200               0             -200               0
1.26316              -0.05904267       -13.77555        -61.82541        132.2555             -200               0             -200               0
1.26974              -0.06057676       -13.89796        -61.35114        131.0722             -200               0             -200               0
1.27632              -0.06221404       -14.02185        -60.85984        129.5755             -200               0             -200               0
1.28289              -0.06396275       -14.14718        -60.36013        127.7769             -200               0             -200               0
1.28947              -0.06583144       -14.27394        -59.85915        125.6961             -200               0             -200               0
1.29605              -0.06782983       -14.40208        -59.36258        123.3573             -200               0             -200               0
1.30263              -0.06996089       -14.53158        -58.87478        120.7867             -200               0             -200               0
1.30921              -0.07222981       -14.66237        -58.39904         118.011             -200               0             -200               0
1.31579              -0.07464235       -14.79443        -57.93772        115.0556             -200               0             -200               0
1.32237              -0.07719774        -14.9277        -57.49245        111.9448             -200               0             -200               0
1.32895              -0.07989755       -15.06215        -57.06433        108.7006             -200               0             -200               0
1.33553              -0.08273995       -15.19773        -56.65402        105.3435             -200               0             -200               0
1.34211              -0.08572405        -15.3344        -56.26184        101.8919             -200               0             -200               0
1.34868                -0.088846       -15.47216        -55.88787        98.36252             -200               0             -200               0
1.35526               -0.0921025       -15.61095        -55.53202        94.77062             -200               0             -200               0
1.36184              -0.09548669       -15.75079        -55.19402        91.12997             -200               0             -200               0
1.36842              -0.09899352       -15.89166        -54.87353        87.45317             -200               0             -200               0
1.375                 -0.1026174       -16.03356        -54.57009        83.75178             -200               0             -200               0
1.38158               -0.1063525       -16.17653        -54.28322        80.03643             -200               0             -200               0
1.38816               -0.1101924       -16.32057        -54.01233        76.31698             -200               0             -200               0
1.39474               -0.1141326       -16.46573        -53.75681        72.60262             -200               0             -200               0
1.40132               -0.1181667       -16.61205        -53.51599        68.90196             -200               0             -200               0
1.40789                -0.122293       -16.75959        -53.28916        65.22309             -200               0             -200               0
1.41447               -0.1265075       -16.90839        -53.07556        61.57365             -200               0             -200               0
1.42105               -0.1308086       -17.05854        -52.87436        57.96084             -200               0             -200               0
1.42763                -0.135196       -17.21009        -52.68468        54.39146             -200               0             -200               0
1.43421               -0.1396699       -17.36313        -52.50558        50.87192             -200               0             -200               0
1.44079               -0.1442358       -17.51773        -52.33606        47.40818             -200               0             -200               0
1.44737               -0.1488945       -17.67396        -52.17501        44.00571             -200               0             -200               0
1.45395               -0.1536545        -17.8319        -52.02128        40.66949             -200               0             -200               0
1.46053               -0.1585196       -17.99161         -51.8736        37.40386             -200               0             -200               0
1.46711               -0.1635004       -18.15315        -51.73066        34.21247             -200               0             -200               0
1.47368               -0.1686063        -18.3166        -51.59103        31.09814             -200               0             -200               0
1.48026               -0.1738447       -18.48199        -51.45324        28.06276             -200               0             -200               0
1.48684               -0.1792278       -18.64936        -51.31574        25.10713             -200               0             -200               0
1.49342               -0.1847672       -18.81877        -51.17695        22.23087             -200               0             -200               0
1.5                   -0.1904708       -18.99022        -51.03526        19.43228             -200               0             -200               0
1.50658               -0.1963543       -19.16373        -50.88909        16.70826             -200               0             -200               0
1.51316               -0.2024245       -19.33933        -50.73688        14.05423             -200               0             -200               0
1.51974               -0.2086906       -19.51699        -50.57719        11.46417             -200               0             -200               0
1.52632               -0.2151637       -19.69673        -50.40866         8.93062             -200               0             -200               0
1.53289               -0.2218506       -19.87852        -50.23014        6.444834             -200               0             -200               0
1.53947               -0.2287562       -20.06236        -50.04068        3.996953             -200               0             -200               0
1.54605               -0.2358873       -20.24824        -49.83954        1.576252             -200               0             -200               0
1.55263               -0.2432456       -20.43612        -49.62628      -0.8285526             -200               0             -200               0
1.55921               -0.2508339       -20.62602        -49.40072       -3.228972             -200               0             -200               0
1.56579               -0.2586521       -20.81791        -49.16294       -5.636393             -200               0             -200               0
1.57237               -0.2666971       -21.01181        -48.91332       -8.061738             -200               0             -200               0
1.57895               -0.2749683       -21.20771        -48.65245       -10.51516             -200               0             -200               0
1.58553               -0.2834626       -21.40563        -48.38116       -13.00578             -200               0             -200               0
1.59211               -0.2921722       -21.60563         -48.1004       -15.54151             -200               0             -200               0
1.59868               -0.3010951       -21.80773        -47.81131       -18.12889             -200               0             -200               0
1.60526               -0.3102247         -22.012        -47.51506       -20.77308             -200               0             -200               0
1.61184               -0.3195557       -22.21853         -47.2129       -23.47782             -200               0             -200               0
1.61842               -0.3290839       -22.42741        -46.90606       -26.24553             -200               0             -200               0
1.625                  -0.338805       -22.63875        -46.59576       -29.07735             -200               0             -200               0
1.63158               -0.3487168       -22.85269        -46.28317       -31.97333             -200               0             -200               0
1.63816               -0.3588188       -23.06937        -45.96937       -34.93251             -200               0             -200               0
1.64474               -0.3691134       -23.28895        -45.65537       -37.95313             -200               0             -200               0
1.65132               -0.3796045       -23.51162        -45.34206        -41.0327             -200               0             -200               0
1.65789               -0.3902987       -23.73755        -45.03026       -44.16822             -200               0             -200               0
1.66447               -0.4012065       -23.96693        -44.72066       -47.35623             -200               0             -200               0
1.67105               -0.4123423       -24.19998        -44.41385       -50.59299             -200               0             -200               0
1.67763               -0.4237229       -24.43689        -44.11034       -53.87454             -200               0             -200               0
1.68421                -0.435369       -24.67787        -43.81053       -57.19678             -200               0             -200               0
1.69079               -0.4473065       -24.92311        -43.51471       -60.55559             -200               0             -200               0
1.69737               -0.4595629       -25.17282        -43.22313       -63.94686             -200               0             -200               0
1.70395               -0.4721713       -25.42716        -42.93592       -67.36651             -200               0             -200               0
1.71053               -0.4851637       -25.68632        -42.65315       -70.81061             -200               0             -200               0
1.71711               -0.4985816       -25.95046        -42.37484       -74.27536             -200               0             -200               0
1.72368               -0.5124642        -26.2197        -42.10092       -77.75712             -200               0             -200               0
1.73026               -0.5268555       -26.49418        -41.83128       -81.25248             -200               0             -200               0
1.73684               -0.5417999       -26.77399        -41.56577       -84.75824             -200               0             -200               0
1.74342               -0.5573443       -27.05919        -41.30416       -88.27144             -200               0             -200               0
1.75                  -0.5735356       -27.34986        -41.04621       -91.78938             -200               0             -200               0
1.75658               -0.5904222       -27.64602        -40.79163       -95.30967             -200               0             -200               0
1.76316               -0.6080516       -27.94768        -40.54009       -98.83017             -200               0             -200               0
1.76974               -0.6264713       -28.25482        -40.29125       -102.3491             -200               0             -200               0
1.77632               -0.6457272       -28.56741        -40.04473       -105.8649             -200               0             -200               0
1.78289               -0.6658635       -28.88541        -39.80015       -109.3764             -200               0             -200               0
1.78947               -0.6869238       -29.20874        -39.55709       -112.8828             -200               0             -200               0
1.79605               -0.7089486       -29.53733        -39.31515       -116.3837             -200               0             -200               0
1.80263               -0.7319781        -29.8711        -39.07392       -119.8787             -200               0             -200               0
1.80921                -0.756046       -30.20994        -38.83298       -123.3683             -200               0             -200               0
1.81579               -0.7811871       -30.55378        -38.59193       -126.8528             -200               0             -200               0
1.82237               -0.8074344       -30.90252        -38.35039       -130.3331             -200               0             -200               0
1.82895               -0.8348144       -31.25606          -38.108       -133.8105             -200               0             -200               0
1.83553                -0.863355       -31.61434        -37.86441       -137.2863             -200               0             -200               0
1.84211               -0.8930815       -31.97729        -37.61931       -140.7624             -200               0             -200               0
1.84868               -0.9240188       -32.34488        -37.37244       -144.2407             -200               0             -200               0
1.85526               -0.9561891       -32.71705        -37.12357       -147.7234             -200               0             -200               0
1.86184               -0.9896164       -33.09383        -36.87251       -151.2128             -200               0             -200               0
1.86842                -1.024323        -33.4752        -36.61912       -154.7116             -200               0             -200               0
1.875                  -1.060334       -33.86123        -36.36331       -158.2222             -200               0             -200               0
1.88158                -1.097676       -34.25199        -36.10503       -161.7473             -200               0             -200               0
1.88816                -1.136379       -34.64755        -35.84429       -165.2896             -200               0             -200               0
1.89474                -1.176474       -35.04803        -35.58115       -168.8517             -200               0             -200               0
1.90132                   -1.218       -35.45359        -35.31571       -172.4362             -200               0             -200               0
1.90789                -1.260997       -35.86437        -35.04812       -176.0454             -200               0             -200               0
1.91447                -1.305515       -36.28056        -34.77854       -179.6817             -200               0             -200               0
1.92105                -1.351606       -36.70234        -34.50721        176.6529             -200               0             -200               0
1.92763                -1.399334       -37.12992        -34.23437        172.9563             -200               0             -200               0
1.93421                -1.448766        -37.5635         -33.9603         169.227             -200               0             -200               0
1.94079                 -1.49998       -38.00329        -33.68529        165.4633             -200               0             -200               0
1.94737                -1.553063       -38.44948        -33.40965         161.664             -200               0             -200               0
1.95395                -1.608108       -38.90226        -33.13372        157.8281             -200               0             -200               0
1.96053                -1.665221        -39.3618        -32.85783        153.9548             -200               0             -200               0
1.96711                -1.724511       -39.82824         -32.5823        150.0434             -200               0             -200               0
1.97368                -1.786103       -40.30169        -32.30747        146.0936             -200               0             -200               0
1.98026                -1.850126       -40.78222        -32.03368        142.1053             -200               0             -200               0
1.98684                 -1.91672       -41.26986        -31.76124        138.0783             -200               0             -200               0
1.99342                -1.986031       -41.76458        -31.49047         134.013             -200               0             -200               0
2                      -2.058215       -42.26631        -31.22167        129.9096             -200               0             -200               0
2.00658                -2.133436        -42.7749        -30.95514        125.7686             -200               0             -200               0
2.01316                -2.211861       -43.29016        -30.69114        121.5906             -200               0             -200               0
2.01974                -2.293665        -43.8118        -30.42994        117.3764             -200               0             -200               0
2.02632                -2.379032       -44.33949        -30.17179        113.1267             -200               0             -200               0
2.03289                -2.468148        -44.8728         -29.9169        108.8423             -200               0             -200               0
2.03947                  -2.5612       -45.41122        -29.66551        104.5244             -200               0             -200               0
2.04605                -2.658387       -45.95418         -29.4178        100.1738             -200               0             -200               0
2.05263                -2.759902       -46.50102        -29.17395         95.7916             -200               0             -200               0
2.05921                -2.865949         -47.051        -28.93414        91.37891             -200               0             -200               0
2.06579                -2.976729       -47.60327        -28.69852        86.93681             -200               0             -200               0
2.07237                 -3.09245       -48.15692        -28.46723        82.46643             -200               0             -200               0
2.07895                -3.213316       -48.71095        -28.24039        77.96891             -200               0             -200               0
2.08553                -3.339534       -49.26427        -28.01813        73.44536             -200               0             -200               0
2.09211                -3.471318       -49.81571        -27.80054        68.89694             -200               0             -200               0
2.09868                -3.608875       -50.36401        -27.58772        64.32476             -200               0             -200               0
2.10526                -3.752422       -50.90779        -27.37975        59.72994             -200               0             -200               0
2.11184                -3.902173       -51.44562         -27.1767         55.1136             -200               0             -200               0
2.11842                -4.058346       -51.97595        -26.97864        50.47681             -200               0             -200               0
2.125                  -4.221163       -52.49714        -26.78563        45.82064             -200               0             -200               0
2.13158                -4.390848       -53.00743        -26.59771        41.14617             -200               0             -200               0
2.13816                -4.567631       -53.50497        -26.41493        36.45441             -200               0             -200               0
2.14474                -4.751749       -53.98777        -26.23732        31.74638             -200               0             -200               0
2.15132                -4.943442       -54.45371        -26.06491        27.02307             -200               0             -200               0
2.15789                -5.142961       -54.90053        -25.89773        22.28545             -200               0             -200               0
2.16447                -5.350567        -55.3258        -25.73581        17.53448             -200               0             -200               0
2.17105                -5.566529       -55.72691        -25.57914        12.77108             -200               0             -200               0
2.17763                 -5.79113       -56.10103        -25.42776         7.99615             -200               0             -200               0
2.18421                -6.024666        -56.4451        -25.28166         3.21059             -200               0             -200               0
2.19079                -6.267447        -56.7558        -25.14086       -1.584739             -200               0             -200               0
2.19737                -6.519802       -57.02944        -25.00535       -6.388986             -200               0             -200               0
2.20395                -6.782074       -57.26201        -24.87513       -11.20132             -200               0             -200               0
2.21053                -7.054625       -57.44903        -24.75021       -16.02094             -200               0             -200               0
2.21711                -7.337832       -57.58552        -24.63057       -20.84703             -200               0             -200               0
2.22368                -7.632092       -57.66591        -24.51622       -25.67883             -200               0             -200               0
2.23026                -7.937811       -57.68391        -24.40713       -30.51556             -200               0             -200               0
2.23684                -8.255407        -57.6324         -24.3033       -35.35647             -200               0             -200               0
2.24342                -8.585295       -57.50331        -24.20473       -40.20084             -200               0             -200               0
2.25                   -8.927883        -57.2874        -24.11139       -45.04793             -200               0             -200               0
2.25658                -9.283549       -56.97412        -24.02327       -49.89703             -200               0             -200               0
2.26316                 -9.65262       -56.55128        -23.94035       -54.74744             -200               0             -200               0
2.26974                -10.03533       -56.00491        -23.86262       -59.59845             -200               0             -200               0
2.27632                 -10.4318       -55.31891        -23.79006        -64.4494             -200               0             -200               0
2.28289                -10.84192       -54.47472        -23.72265        -69.2996             -200               0             -200               0
2.28947                 -11.2653       -53.45104        -23.66036       -74.14837             -200               0             -200               0