! TOUCHSTONE file generated by CST MICROWAVE STUDIO
! Date and time: Sat Mar  8 13:54:27 2025
! Project name: non_fractured.cst
! Parameters = {B=2.5; D=160; F=25; Feed=2.85625; L=100; M=5; R=0.384908; S=1; Theta=270; length=57.125; wave=114.25}
! Header version: 2024
! Port assignment regex: !\s*Touchstone port\s*([0-9]+)\s*=\s*(CST MWS port|CST DES external port|CST DES block port)\s*(.+)\s* \(\"(.*)\"\)(\s*mode\s*([0-9]+))?.*
! Touchstone port assignment:
! Touchstone port 1 = CST MWS port 1 ("")
! Touchstone port 2 = CST MWS port 2 ("")
# GHz S DB R 50
1                    -0.01726571       -9.759788        -66.94079       -120.9217             -200               0             -200               0
1.0066                -0.0181662       -9.849566        -66.38022       -125.7686             -200               0             -200               0
1.0132               -0.01914189       -9.939579        -65.86607       -130.6588             -200               0             -200               0
1.0198               -0.02018304       -10.02978        -65.39471       -135.5755             -200               0             -200               0
1.0264                -0.0212801       -10.12012        -64.96309       -140.5047             -200               0             -200               0
1.033                -0.02242012       -10.21057         -64.5686       -145.4343             -200               0             -200               0
1.0396               -0.02359078       -10.30113        -64.20905       -150.3537             -200               0             -200               0
1.0462               -0.02477702       -10.39181        -63.88254       -155.2533             -200               0             -200               0
1.05281              -0.02596884       -10.48261        -63.58746       -160.1243             -200               0             -200               0
1.05941              -0.02715036       -10.57357        -63.32239       -164.9581             -200               0             -200               0
1.06601              -0.02831214       -10.66475         -63.0861       -169.7465             -200               0             -200               0
1.07261                -0.029442       -10.75622        -62.87751       -174.4811             -200               0             -200               0
1.07921              -0.03053063       -10.84804        -62.69563       -179.1534             -200               0             -200               0
1.08581              -0.03157035        -10.9403        -62.53957        176.2454             -200               0             -200               0
1.09241              -0.03255698       -11.03311        -62.40848        171.7247             -200               0             -200               0
1.09901              -0.03348741       -11.12657        -62.30154        167.2944             -200               0             -200               0
1.10561              -0.03436003       -11.22078         -62.2179         162.965             -200               0             -200               0
1.11221              -0.03517731       -11.31585        -62.15666        158.7481             -200               0             -200               0
1.11881              -0.03594273       -11.41189        -62.11685         154.656             -200               0             -200               0
1.12541               -0.0366662       -11.50899        -62.09732        150.7019             -200               0             -200               0
1.13201              -0.03735393       -11.60726        -62.09673        146.9004             -200               0             -200               0
1.13861              -0.03801836       -11.70678        -62.11346        143.2666             -200               0             -200               0
1.14521              -0.03867202       -11.80763        -62.14553        139.8166             -200               0             -200               0
1.15182              -0.03933075       -11.90985        -62.19052         136.567             -200               0             -200               0
1.15842              -0.04000997       -12.01349        -62.24545        133.5346             -200               0             -200               0
1.16502              -0.04072428       -12.11858        -62.30671         130.735             -200               0             -200               0
1.17162              -0.04149244       -12.22514        -62.36996        128.1826             -200               0             -200               0
1.17822              -0.04233052       -12.33315        -62.43006        125.8884             -200               0             -200               0
1.18482              -0.04325542       -12.44258        -62.48112        123.8583             -200               0             -200               0
1.19142              -0.04428006       -12.55341        -62.51654        122.0914             -200               0             -200               0
1.19802              -0.04541866       -12.66557        -62.52929        120.5778             -200               0             -200               0
1.20462              -0.04668494         -12.779        -62.51222        119.2968             -200               0             -200               0
1.21122              -0.04808558       -12.89361        -62.45859        118.2158             -200               0             -200               0
1.21782              -0.04963016       -13.00933        -62.36265        117.2906             -200               0             -200               0
1.22442              -0.05132153       -13.12605        -62.22023        116.4672             -200               0             -200               0
1.23102              -0.05316446       -13.24369        -62.02925        115.6856             -200               0             -200               0
1.23762              -0.05515559       -13.36215        -61.78991         114.884             -200               0             -200               0
1.24422              -0.05729303       -13.48133        -61.50469        114.0037             -200               0             -200               0
1.25083              -0.05957119       -13.60114          -61.178        112.9938             -200               0             -200               0
1.25743              -0.06197906       -13.72152        -60.81564        111.8137             -200               0             -200               0
1.26403              -0.06450953       -13.84239        -60.42423        110.4351             -200               0             -200               0
1.27063              -0.06714758       -13.96371        -60.01057         108.841             -200               0             -200               0
1.27723              -0.06987795       -14.08543        -59.58126        107.0249             -200               0             -200               0
1.28383              -0.07268878       -14.20754        -59.14232        104.9888             -200               0             -200               0
1.29043              -0.07556108       -14.33004        -58.69901        102.7411             -200               0             -200               0
1.29703              -0.07848048       -14.45295         -58.2558        100.2945             -200               0             -200               0
1.30363              -0.08142849        -14.5763        -57.81637        97.66456             -200               0             -200               0
1.31023              -0.08439218       -14.70017        -57.38365        94.86812             -200               0             -200               0
1.31683              -0.08735623       -14.82462        -56.95992        91.92265             -200               0             -200               0
1.32343               -0.0903093       -14.94975        -56.54691        88.84543             -200               0             -200               0
1.33003              -0.09323818       -15.07566         -56.1459        85.65312             -200               0             -200               0
1.33663              -0.09613768       -15.20249        -55.75775        82.36157             -200               0             -200               0
1.34323              -0.09899984       -15.33035        -55.38305        78.98564             -200               0             -200               0
1.34984               -0.1018232       -15.45939         -55.0221        75.53918             -200               0             -200               0
1.35644               -0.1046076       -15.58976          -54.675        72.03503             -200               0             -200               0
1.36304               -0.1073554       -15.72158        -54.34171        68.48509             -200               0             -200               0
1.36964               -0.1100754       -15.85501        -54.02202        64.90035             -200               0             -200               0
1.37624               -0.1127743       -15.99018        -53.71561        61.29097             -200               0             -200               0
1.38284               -0.1154637       -16.12722        -53.42208        57.66631             -200               0             -200               0
1.38944               -0.1181602       -16.26624        -53.14094        54.03506             -200               0             -200               0
1.39604               -0.1208782       -16.40734         -52.8716        50.40524             -200               0             -200               0
1.40264               -0.1236368       -16.55061        -52.61345        46.78423             -200               0             -200               0
1.40924                -0.126455       -16.69611        -52.36576        43.17884             -200               0             -200               0
1.41584               -0.1293513       -16.84391        -52.12778         39.5953             -200               0             -200               0
1.42244               -0.1323472       -16.99402        -51.89869        36.03927             -200               0             -200               0
1.42904               -0.1354621       -17.14646        -51.67761        32.51584             -200               0             -200               0
1.43564                -0.138716       -17.30122         -51.4636        29.02948             -200               0             -200               0
1.44224               -0.1421263       -17.45828        -51.25569        25.58404             -200               0             -200               0
1.44884                 -0.14571       -17.61762        -51.05284        22.18272             -200               0             -200               0
1.45545               -0.1494808       -17.77916        -50.85396        18.82796             -200               0             -200               0
1.46205               -0.1534505       -17.94287        -50.65797        15.52147             -200               0             -200               0
1.46865               -0.1576294       -18.10866        -50.46371        12.26412             -200               0             -200               0
1.47525               -0.1620226       -18.27647        -50.27004        9.055925             -200               0             -200               0
1.48185               -0.1666356       -18.44622        -50.07582        5.895972             -200               0             -200               0
1.48845               -0.1714694       -18.61786        -49.87993        2.782419             -200               0             -200               0
1.49505               -0.1765197       -18.79131        -49.68127      -0.2875238             -200               0             -200               0
1.50165               -0.1817836       -18.96653        -49.47883       -3.317579             -200               0             -200               0
1.50825                -0.187254       -19.14348        -49.27167        -6.31236             -200               0             -200               0
1.51485               -0.1929212       -19.32215        -49.05894       -9.277293             -200               0             -200               0
1.52145               -0.1987754       -19.50252        -48.83996       -12.21852             -200               0             -200               0
1.52805               -0.2048052       -19.68462        -48.61413       -15.14277             -200               0             -200               0
1.53465               -0.2109974       -19.86849        -48.38106       -18.05719             -200               0             -200               0
1.54125               -0.2173421       -20.05419         -48.1405       -20.96917             -200               0             -200               0
1.54785               -0.2238257       -20.24182        -47.89238       -23.88618             -200               0             -200               0
1.55446               -0.2304392       -20.43149        -47.63677       -26.81556             -200               0             -200               0
1.56106               -0.2371737       -20.62333        -47.37393       -29.76435             -200               0             -200               0
1.56766               -0.2440236       -20.81749        -47.10425       -32.73913             -200               0             -200               0
1.57426               -0.2509858       -21.01416        -46.82825        -35.7459             -200               0             -200               0
1.58086               -0.2580625       -21.21352        -46.54655       -38.78993             -200               0             -200               0
1.58746               -0.2652545       -21.41577        -46.25987       -41.87573             -200               0             -200               0
1.59406                -0.272574       -21.62112        -45.96898       -45.00701             -200               0             -200               0
1.60066               -0.2800317       -21.82979        -45.67468       -48.18659             -200               0             -200               0
1.60726               -0.2876459       -22.04198        -45.37783       -51.41653             -200               0             -200               0
1.61386               -0.2954371       -22.25792        -45.07923       -54.69806             -200               0             -200               0
1.62046                -0.303433       -22.47779        -44.77973       -58.03169             -200               0             -200               0
1.62706               -0.3116635       -22.70179        -44.48009       -61.41728             -200               0             -200               0
1.63366                -0.320162       -22.93008        -44.18107       -64.85407             -200               0             -200               0
1.64026               -0.3289666       -23.16281        -43.88337       -68.34078             -200               0             -200               0
1.64686               -0.3381183        -23.4001        -43.58762       -71.87569             -200               0             -200               0
1.65347               -0.3476595       -23.64207        -43.29442       -75.45671             -200               0             -200               0
1.66007               -0.3576347       -23.88876        -43.00428       -79.08143             -200               0             -200               0
1.66667               -0.3680898       -24.14021        -42.71768       -82.74721             -200               0             -200               0
1.67327               -0.3790702       -24.39644          -42.435       -86.45121             -200               0             -200               0
1.67987                -0.390622       -24.65742        -42.15661       -90.19046             -200               0             -200               0
1.68647               -0.4027879       -24.92309        -41.88279       -93.96189             -200               0             -200               0
1.69307               -0.4156128       -25.19337        -41.61376       -97.76239             -200               0             -200               0
1.69967               -0.4291333       -25.46816        -41.34972       -101.5888             -200               0             -200               0
1.70627               -0.4433891       -25.74732        -41.09079        -105.438             -200               0             -200               0
1.71287               -0.4584108        -26.0307        -40.83705       -109.3068             -200               0             -200               0
1.71947               -0.4742293       -26.31814        -40.58856       -113.1923             -200               0             -200               0
1.72607               -0.4908673       -26.60947        -40.34529       -117.0913             -200               0             -200               0
1.73267               -0.5083468       -26.90452        -40.10723        -121.001             -200               0             -200               0
1.73927               -0.5266811       -27.20309        -39.87428       -124.9186             -200               0             -200               0
1.74587                -0.545882       -27.50503        -39.64634       -128.8412             -200               0             -200               0
1.75248               -0.5659549       -27.81017        -39.42326       -132.7664             -200               0             -200               0
1.75908               -0.5869022       -28.11838        -39.20485       -136.6917             -200               0             -200               0
1.76568               -0.6087221       -28.42954        -38.99092       -140.6147             -200               0             -200               0
1.77228               -0.6314078       -28.74355        -38.78122       -144.5332             -200               0             -200               0
1.77888               -0.6549527       -29.06036        -38.57549       -148.4453             -200               0             -200               0
1.78548               -0.6793464       -29.37994        -38.37344        -152.349             -200               0             -200               0
1.79208               -0.7045794       -29.70231        -38.17476       -156.2428             -200               0             -200               0
1.79868               -0.7306399       -30.02753        -37.97912       -160.1253             -200               0             -200               0
1.80528               -0.7575186       -30.35568        -37.78615       -163.9951             -200               0             -200               0
1.81188               -0.7852076       -30.68692        -37.59549       -167.8513             -200               0             -200               0
1.81848               -0.8137017       -31.02141        -37.40676       -171.6932             -200               0             -200               0
1.82508               -0.8430005       -31.35938        -37.21956       -175.5202             -200               0             -200               0
1.83168               -0.8731078        -31.7011        -37.03348        -179.332             -200               0             -200               0
1.83828               -0.9040337       -32.04683        -36.84813        176.8712             -200               0             -200               0
1.84488               -0.9357947       -32.39692        -36.66309        173.0892             -200               0             -200               0
1.85149                -0.968416        -32.7517        -36.47796        169.3213             -200               0             -200               0
1.85809                 -1.00193       -33.11154        -36.29235        165.5668             -200               0             -200               0
1.86469                 -1.03638        -33.4768        -36.10589        161.8244             -200               0             -200               0
1.87129                -1.071814       -33.84788         -35.9182        158.0927             -200               0             -200               0
1.87789                -1.108296       -34.22514        -35.72895          154.37             -200               0             -200               0
1.88449                -1.145893       -34.60895        -35.53784        150.6544             -200               0             -200               0
1.89109                -1.184689       -34.99967        -35.34459        146.9438             -200               0             -200               0
1.89769                -1.224768       -35.39759        -35.14897        143.2357             -200               0             -200               0
1.90429                -1.266234       -35.80303        -34.95077        139.5276             -200               0             -200               0
1.91089                 -1.30919       -36.21624        -34.74984         135.817             -200               0             -200               0
1.91749                -1.353753        -36.6374        -34.54608         132.101             -200               0             -200               0
1.92409                -1.400046       -37.06668        -34.33943        128.3768             -200               0             -200               0
1.93069                -1.448196       -37.50417        -34.12986        124.6417             -200               0             -200               0
1.93729                 -1.49834       -37.94992        -33.91742        120.8927             -200               0             -200               0
1.94389                -1.550618        -38.4039        -33.70219        117.1272             -200               0             -200               0
1.9505                 -1.605171       -38.86602        -33.48428        113.3425             -200               0             -200               0
1.9571                 -1.662147       -39.33611        -33.26387        109.5361             -200               0             -200               0
1.9637                 -1.721696       -39.81396        -33.04114        105.7056             -200               0             -200               0
1.9703                 -1.783966       -40.29927        -32.81634        101.8489             -200               0             -200               0
1.9769                 -1.849108       -40.79169        -32.58973        97.96378             -200               0             -200               0
1.9835                  -1.91727        -41.2908        -32.36159        94.04865             -200               0             -200               0
1.9901                 -1.988604       -41.79611        -32.13223        90.10189             -200               0             -200               0
1.9967                 -2.063254       -42.30707        -31.90197        86.12217             -200               0             -200               0
2.0033                 -2.141366        -42.8231        -31.67115         82.1084             -200               0             -200               0
2.0099                 -2.223082       -43.34354         -31.4401         78.0597             -200               0             -200               0
2.0165                 -2.308543        -43.8677        -31.20915         73.9754             -200               0             -200               0
2.0231                 -2.397882       -44.39483        -30.97866        69.85506             -200               0             -200               0
2.0297                 -2.491235       -44.92414        -30.74896        65.69843             -200               0             -200               0
2.0363                 -2.588734       -45.45484        -30.52036        61.50545             -200               0             -200               0
2.0429                 -2.690505       -45.98606         -30.2932        57.27621             -200               0             -200               0
2.0495                 -2.796677        -46.5169        -30.06778        53.01099             -200               0             -200               0
2.05611                -2.907373       -47.04648         -29.8444        48.71017             -200               0             -200               0
2.06271                -3.022717       -47.57385        -29.62332        44.37427             -200               0             -200               0
2.06931                -3.142834       -48.09805        -29.40483        40.00395             -200               0             -200               0
2.07591                -3.267849        -48.6181        -29.18918         35.5999             -200               0             -200               0
2.08251                -3.397888       -49.13299        -28.97659        31.16297             -200               0             -200               0
2.08911                -3.533081       -49.64168        -28.76729          26.694             -200               0             -200               0
2.09571                -3.673561       -50.14312        -28.56149        22.19394             -200               0             -200               0
2.10231                -3.819468       -50.63619        -28.35938        17.66377             -200               0             -200               0
2.10891                -3.970947       -51.11977        -28.16113        13.10451             -200               0             -200               0
2.11551                -4.128151       -51.59267        -27.96691        8.517192             -200               0             -200               0
2.12211                -4.291244       -52.05363        -27.77686        3.902886             -200               0             -200               0
2.12871                -4.460401       -52.50136        -27.59113      -0.7373304             -200               0             -200               0
2.13531                -4.635806       -52.93444        -27.40984       -5.402376             -200               0             -200               0
2.14191                -4.817661        -53.3514         -27.2331       -10.09116             -200               0             -200               0
2.14851                 -5.00618       -53.75058        -27.06101       -14.80261             -200               0             -200               0
2.15512                -5.201594       -54.13026        -26.89367       -19.53564             -200               0             -200               0
2.16172                -5.404152        -54.4885        -26.73116       -24.28918             -200               0             -200               0
2.16832                -5.614121       -54.82316        -26.57357       -29.06218             -200               0             -200               0
2.17492                -5.831784       -55.13189        -26.42095       -33.85358             -200               0             -200               0
2.18152                -6.057449       -55.41206        -26.27336       -38.66237             -200               0             -200               0
2.18812                -6.291439       -55.66073        -26.13087       -43.48752             -200               0             -200               0
2.19472                -6.534098       -55.87458        -25.99351       -48.32804             -200               0             -200               0
2.20132                -6.785785       -56.04988        -25.86134       -53.18296             -200               0             -200               0
2.20792                -7.046877       -56.18239        -25.73438        -58.0513             -200               0             -200               0
2.21452                -7.317766       -56.26734        -25.61268       -62.93212             -200               0             -200               0
2.22112                -7.598846       -56.29928        -25.49625        -67.8245             -200               0             -200               0
2.22772                -7.890517       -56.27201        -25.38512       -72.72753             -200               0             -200               0
2.23432                -8.193174       -56.17847        -25.27932        -77.6403             -200               0             -200               0
2.24092                -8.507186       -56.01064        -25.17885       -82.56194             -200               0             -200               0
2.24752                -8.832893       -55.75933        -25.08374       -87.49159             -200               0             -200               0
2.25413                -9.170572       -55.41408          -24.994        -92.4284             -200               0             -200               0
2.26073                -9.520417       -54.96296        -24.90962       -97.37153             -200               0             -200               0
2.26733                 -9.88249       -54.39242        -24.83063       -102.3201             -200               0             -200               0
2.27393                -10.25668       -53.68702        -24.75703       -107.2735             -200               0             -200               0
2.28053                -10.64262       -52.82936        -24.68882       -112.2307             -200               0             -200               0
2.28713                -11.03961       -51.79988        -24.62599       -117.1909             -200               0             -200               0
2.29373                -11.44652       -50.57682        -24.56856       -122.1535             -200               0             -200               0