! TOUCHSTONE file generated by CST MICROWAVE STUDIO
! Date and time: Sat Mar  8 13:55:41 2025
! Project name: non_fractured.cst
! Parameters = {B=2.5; D=160; F=25; Feed=2.85625; L=100; M=20; R=0.384908; S=2; Theta=180; length=57.125; wave=114.25}
! Header version: 2024
! Port assignment regex: !\s*Touchstone port\s*([0-9]+)\s*=\s*(CST MWS port|CST DES external port|CST DES block port)\s*(.+)\s* \(\"(.*)\"\)(\s*mode\s*([0-9]+))?.*
! Touchstone port assignment:
! Touchstone port 1 = CST MWS port 1 ("")
! Touchstone port 2 = CST MWS port 2 ("")
# GHz S DB R 50
1                     -0.0197626       -9.756276        -66.96276        -172.049             -200               0             -200               0
1.00658              -0.02051083       -9.843499        -66.94537       -176.4666             -200               0             -200               0
1.01316              -0.02127815       -9.931208        -66.95101        179.2705             -200               0             -200               0
1.01974              -0.02206398       -10.01941        -66.97862        175.1778             -200               0             -200               0
1.02632              -0.02286501       -10.10812        -67.02686        171.2724             -200               0             -200               0
1.03289              -0.02367999       -10.19736        -67.09403        167.5734             -200               0             -200               0
1.03947              -0.02450747       -10.28714        -67.17788        164.1014             -200               0             -200               0
1.04605               -0.0253471       -10.37748        -67.27554        160.8785             -200               0             -200               0
1.05263              -0.02619835       -10.46841         -67.3833         157.927             -200               0             -200               0
1.05921              -0.02705865       -10.55995        -67.49643        155.2689             -200               0             -200               0
1.06579              -0.02793211       -10.65212        -67.60906        152.9236             -200               0             -200               0
1.07237              -0.02881485       -10.74496        -67.71405         150.906             -200               0             -200               0
1.07895              -0.02971159       -10.83848        -67.80302        149.2227             -200               0             -200               0
1.08553              -0.03062155       -10.93272         -67.8665        147.8687             -200               0             -200               0
1.09211              -0.03154666       -11.02769        -67.89443        146.8237             -200               0             -200               0
1.09868              -0.03249055       -11.12342        -67.87692        146.0492             -200               0             -200               0
1.10526              -0.03345408       -11.21994         -67.8052        145.4874             -200               0             -200               0
1.11184              -0.03444303       -11.31726        -67.67273         145.064             -200               0             -200               0
1.11842              -0.03545678       -11.41541        -67.47615        144.6932             -200               0             -200               0
1.125                -0.03650179       -11.51439        -67.21578        144.2857             -200               0             -200               0
1.13158              -0.03758075       -11.61421        -66.89556        143.7578             -200               0             -200               0
1.13816              -0.03869711       -11.71489        -66.52239         143.039             -200               0             -200               0
1.14474              -0.03985424       -11.81644        -66.10514        142.0764             -200               0             -200               0
1.15132              -0.04105574       -11.91885        -65.65358        140.8361             -200               0             -200               0
1.15789              -0.04230359       -12.02213        -65.17741        139.3023             -200               0             -200               0
1.16447               -0.0436042       -12.12628        -64.68558        137.4736             -200               0             -200               0
1.17105              -0.04495659       -12.23128        -64.18589        135.3597             -200               0             -200               0
1.17763              -0.04636458       -12.33714        -63.68489        132.9773             -200               0             -200               0
1.18421              -0.04782995       -12.44385        -63.18783        130.3476             -200               0             -200               0
1.19079              -0.04935396       -12.55141        -62.69882        127.4938             -200               0             -200               0
1.19737               -0.0509374       -12.65979          -62.221        124.4392             -200               0             -200               0
1.20395               -0.0525799         -12.769         -61.7567        121.2069             -200               0             -200               0
1.21053              -0.05428331       -12.87904        -61.30758        117.8185             -200               0             -200               0
1.21711              -0.05604615       -12.98989         -60.8748        114.2941             -200               0             -200               0
1.22368              -0.05786694       -13.10155        -60.45911        110.6521             -200               0             -200               0
1.23026              -0.05974505       -13.21402        -60.06098        106.9093             -200               0             -200               0
1.23684              -0.06167941       -13.32731        -59.68063        103.0811             -200               0             -200               0
1.24342              -0.06366701       -13.44142        -59.31811        99.18127             -200               0             -200               0
1.25                 -0.06570537       -13.55636        -58.97334        95.22249             -200               0             -200               0
1.25658              -0.06779351       -13.67214        -58.64616        91.21628             -200               0             -200               0
1.26316              -0.06992899       -13.78878        -58.33632        87.17318             -200               0             -200               0
1.26974              -0.07211108        -13.9063        -58.04352        83.10295             -200               0             -200               0
1.27632              -0.07433551       -14.02472        -57.76743        79.01464             -200               0             -200               0
1.28289              -0.07660159       -14.14408        -57.50768        74.91669             -200               0             -200               0
1.28947              -0.07890914       -14.26439        -57.26389        70.81709             -200               0             -200               0
1.29605              -0.08125546        -14.3857        -57.03562        66.72342             -200               0             -200               0
1.30263              -0.08364234       -14.50803        -56.82244        62.64295             -200               0             -200               0
1.30921              -0.08606734       -14.63144        -56.62388        58.58268             -200               0             -200               0
1.31579              -0.08853314       -14.75595        -56.43944        54.54943             -200               0             -200               0
1.32237              -0.09104077        -14.8816        -56.26859        50.54985             -200               0             -200               0
1.32895               -0.0935895       -15.00844        -56.11075        46.59048             -200               0             -200               0
1.33553              -0.09618377       -15.13649        -55.96531        42.67777             -200               0             -200               0
1.34211              -0.09882586       -15.26581        -55.83159        38.81807             -200               0             -200               0
1.34868               -0.1015181       -15.39643        -55.70884        35.01765             -200               0             -200               0
1.35526               -0.1042651       -15.52837        -55.59625        31.28265             -200               0             -200               0
1.36184               -0.1070685       -15.66169         -55.4929        27.61909             -200               0             -200               0
1.36842               -0.1099336        -15.7964         -55.3978        24.03275             -200               0             -200               0
1.375                 -0.1128646       -15.93253        -55.30984        20.52915             -200               0             -200               0
1.38158               -0.1158657        -16.0701        -55.22779         17.1134             -200               0             -200               0
1.38816               -0.1189385       -16.20915         -55.1503         13.7901             -200               0             -200               0
1.39474               -0.1220906       -16.34969        -55.07588        10.56313             -200               0             -200               0
1.40132               -0.1253222       -16.49175        -55.00294         7.43553             -200               0             -200               0
1.40789               -0.1286383       -16.63533        -54.92974        4.409261             -200               0             -200               0
1.41447               -0.1320418       -16.78046        -54.85446        1.484979             -200               0             -200               0
1.42105               -0.1355356       -16.92715        -54.77518       -1.338175             -200               0             -200               0
1.42763               -0.1391193       -17.07541        -54.68993       -4.062784             -200               0             -200               0
1.43421               -0.1427968       -17.22528        -54.59675       -6.693329             -200               0             -200               0
1.44079                -0.146569       -17.37676        -54.49371       -9.236307             -200               0             -200               0
1.44737               -0.1504359       -17.52988        -54.37899       -11.70027             -200               0             -200               0
1.45395               -0.1543983       -17.68467        -54.25097       -14.09574             -200               0             -200               0
1.46053               -0.1584549       -17.84115        -54.10823       -16.43507             -200               0             -200               0
1.46711               -0.1626067       -17.99936        -53.94969       -18.73211             -200               0             -200               0
1.47368               -0.1668529       -18.15934        -53.77459       -21.00181             -200               0             -200               0
1.48026               -0.1711919       -18.32114        -53.58257       -23.25977             -200               0             -200               0
1.48684               -0.1756245       -18.48481        -53.37366       -25.52162             -200               0             -200               0
1.49342               -0.1801496        -18.6504        -53.14829       -27.80259             -200               0             -200               0
1.5                   -0.1847672         -18.818        -52.90724       -30.11689             -200               0             -200               0
1.50658               -0.1894785       -18.98766         -52.6516       -32.47736             -200               0             -200               0
1.51316               -0.1942844       -19.15946        -52.38273        -34.8951             -200               0             -200               0
1.51974               -0.1991875        -19.3335        -52.10216        -37.3793             -200               0             -200               0
1.52632               -0.2041903       -19.50985        -51.81155       -39.93707             -200               0             -200               0
1.53289               -0.2092972       -19.68862        -51.51264       -42.57354             -200               0             -200               0
1.53947                -0.214514       -19.86991        -51.20713       -45.29191             -200               0             -200               0
1.54605               -0.2198472        -20.0538        -50.89671       -48.09361             -200               0             -200               0
1.55263                -0.225305       -20.24042        -50.58296       -50.97853             -200               0             -200               0
1.55921                -0.230896       -20.42986        -50.26737       -53.94521             -200               0             -200               0
1.56579               -0.2366325       -20.62223        -49.95128       -56.99113             -200               0             -200               0
1.57237               -0.2425262       -20.81764        -49.63591       -60.11287             -200               0             -200               0
1.57895               -0.2485899       -21.01618        -49.32231       -63.30633             -200               0             -200               0
1.58553               -0.2548404       -21.21794        -49.01142       -66.56692             -200               0             -200               0
1.59211               -0.2612928       -21.42304        -48.70402       -69.88971             -200               0             -200               0
1.59868               -0.2679652       -21.63154        -48.40076       -73.26955             -200               0             -200               0
1.60526               -0.2748767       -21.84353        -48.10218       -76.70118             -200               0             -200               0
1.61184               -0.2820451       -22.05909        -47.80871       -80.17934             -200               0             -200               0
1.61842               -0.2894921       -22.27829        -47.52066       -83.69878             -200               0             -200               0
1.625                 -0.2972362       -22.50117        -47.23826       -87.25438             -200               0             -200               0
1.63158               -0.3053001       -22.72781        -46.96165       -90.84115             -200               0             -200               0
1.63816               -0.3137037       -22.95822         -46.6909       -94.45429             -200               0             -200               0
1.64474               -0.3224692       -23.19247        -46.42598       -98.08916             -200               0             -200               0
1.65132               -0.3316159       -23.43056        -46.16684       -101.7414             -200               0             -200               0
1.65789               -0.3411644       -23.67254        -45.91335       -105.4068             -200               0             -200               0
1.66447               -0.3511356       -23.91842        -45.66531       -109.0814             -200               0             -200               0
1.67105               -0.3615475        -24.1682         -45.4225       -112.7616             -200               0             -200               0
1.67763               -0.3724189       -24.42192        -45.18464       -116.4441             -200               0             -200               0
1.68421               -0.3837673       -24.67957        -44.95142       -120.1255             -200               0             -200               0
1.69079                 -0.39561       -24.94117        -44.72247       -123.8032             -200               0             -200               0
1.69737               -0.4079618       -25.20673        -44.49741       -127.4747             -200               0             -200               0
1.70395               -0.4208375       -25.47628        -44.27581       -131.1375             -200               0             -200               0
1.71053               -0.4342522       -25.74983        -44.05725         -134.79             -200               0             -200               0
1.71711               -0.4482212       -26.02741        -43.84124       -138.4305             -200               0             -200               0
1.72368               -0.4627555       -26.30907         -43.6273       -142.0579             -200               0             -200               0
1.73026               -0.4778695       -26.59483        -43.41493       -145.6712             -200               0             -200               0
1.73684               -0.4935749       -26.88477        -43.20362       -149.2701             -200               0             -200               0
1.74342               -0.5098861       -27.17896        -42.99287       -152.8544             -200               0             -200               0
1.75                   -0.526817       -27.47747        -42.78215       -156.4245             -200               0             -200               0
1.75658               -0.5443822       -27.78039        -42.57098        -159.981             -200               0             -200               0
1.76316               -0.5625974       -28.08784        -42.35887        -163.525             -200               0             -200               0
1.76974               -0.5814794       -28.39993        -42.14536        -167.058             -200               0             -200               0
1.77632               -0.6010491        -28.7168        -41.93001       -170.5818             -200               0             -200               0
1.78289               -0.6213263       -29.03859        -41.71243       -174.0985             -200               0             -200               0
1.78947               -0.6423349       -29.36546        -41.49226       -177.6106             -200               0             -200               0
1.79605               -0.6641017       -29.69759         -41.2692        178.8793             -200               0             -200               0
1.80263               -0.6866585       -30.03514        -41.04299        175.3681             -200               0             -200               0
1.80921               -0.7100362        -30.3783        -40.81343        171.8528             -200               0             -200               0
1.81579               -0.7342735       -30.72727        -40.58038        168.3302             -200               0             -200               0
1.82237               -0.7594123       -31.08223        -40.34377        164.7968             -200               0             -200               0
1.82895               -0.7854952       -31.44338        -40.10357        161.2495             -200               0             -200               0
1.83553               -0.8125743       -31.81091        -39.85983        157.6847             -200               0             -200               0
1.84211               -0.8407022       -32.18502        -39.61264        154.0993             -200               0             -200               0
1.84868               -0.8699383       -32.56588        -39.36217        150.4903             -200               0             -200               0
1.85526               -0.9003466       -32.95369        -39.10862        146.8546             -200               0             -200               0
1.86184               -0.9319934       -33.34859        -38.85225        143.1896             -200               0             -200               0
1.86842               -0.9649505       -33.75074        -38.59333        139.4927             -200               0             -200               0
1.875                 -0.9992971       -34.16028         -38.3322        135.7619             -200               0             -200               0
1.88158                -1.035111       -34.57732        -38.06921         131.995             -200               0             -200               0
1.88816                -1.072481       -35.00197        -37.80472        128.1905             -200               0             -200               0
1.89474                -1.111495       -35.43429        -37.53914         124.347             -200               0             -200               0
1.90132                -1.152247       -35.87433        -37.27284        120.4634             -200               0             -200               0
1.90789                -1.194833       -36.32213        -37.00624        116.5389             -200               0             -200               0
1.91447                -1.239356       -36.77768        -36.73973        112.5731             -200               0             -200               0
1.92105                -1.285919       -37.24094        -36.47371        108.5655             -200               0             -200               0
1.92763                 -1.33463       -37.71187        -36.20855        104.5162             -200               0             -200               0
1.93421                  -1.3856       -38.19036        -35.94463        100.4253             -200               0             -200               0
1.94079                -1.438941        -38.6763         -35.6823        96.29312             -200               0             -200               0
1.94737                -1.494773       -39.16954        -35.42191        92.12023             -200               0             -200               0
1.95395                -1.553213       -39.66989        -35.16378        87.90728             -200               0             -200               0
1.96053                -1.614382       -40.17714        -34.90821        83.65505             -200               0             -200               0
1.96711                -1.678406       -40.69102        -34.65548        79.36446             -200               0             -200               0
1.97368                -1.745412       -41.21126        -34.40587        75.03651             -200               0             -200               0
1.98026                 -1.81553       -41.73754         -34.1596        70.67227             -200               0             -200               0
1.98684                -1.888891       -42.26951        -33.91693        66.27287             -200               0             -200               0
1.99342                -1.965633       -42.80677        -33.67804        61.83949             -200               0             -200               0
2                       -2.04589        -43.3489        -33.44312        57.37337             -200               0             -200               0
2.00658                -2.129806       -43.89543        -33.21237        52.87572             -200               0             -200               0
2.01316                -2.217526       -44.44587        -32.98592        48.34782             -200               0             -200               0
2.01974                -2.309196       -44.99967        -32.76392        43.79093             -200               0             -200               0
2.02632                -2.404969       -45.55625         -32.5465        39.20631             -200               0             -200               0
2.03289                -2.504998       -46.11497        -32.33377        34.59522             -200               0             -200               0
2.03947                -2.609447       -46.67514        -32.12584         29.9589             -200               0             -200               0
2.04605                -2.718478       -47.23606        -31.92279         25.2986             -200               0             -200               0
2.05263                -2.832263       -47.79692         -31.7247        20.61553             -200               0             -200               0
2.05921                -2.950974       -48.35688        -31.53165        15.91088             -200               0             -200               0
2.06579                -3.074796       -48.91503        -31.34369        11.18584             -200               0             -200               0
2.07237                -3.203914       -49.47038        -31.16088        6.441539             -200               0             -200               0
2.07895                -3.338523       -50.02187        -30.98326        1.679118             -200               0             -200               0
2.08553                -3.478824       -50.56835        -30.81086       -3.100325             -200               0             -200               0
2.09211                -3.625025       -51.10858        -30.64373       -7.895711             -200               0             -200               0
2.09868                -3.777343       -51.64121        -30.48188       -12.70599             -200               0             -200               0
2.10526                -3.936003       -52.16477        -30.32535       -17.53015             -200               0             -200               0
2.11184                -4.101238       -52.67766        -30.17413       -22.36716             -200               0             -200               0
2.11842                -4.273289       -53.17814        -30.02826       -27.21606             -200               0             -200               0
2.125                  -4.452407        -53.6643        -29.88772       -32.07589             -200               0             -200               0
2.13158                -4.638853       -54.13409        -29.75254       -36.94573             -200               0             -200               0
2.13816                -4.832895       -54.58519        -29.62271       -41.82464             -200               0             -200               0
2.14474                 -5.03481       -55.01511        -29.49823       -46.71176             -200               0             -200               0
2.15132                -5.244885        -55.4211         -29.3791       -51.60618             -200               0             -200               0
2.15789                -5.463413       -55.80012         -29.2653       -56.50707             -200               0             -200               0
2.16447                -5.690694       -56.14881        -29.15684       -61.41359             -200               0             -200               0
2.17105                -5.927034       -56.46347         -29.0537        -66.3249             -200               0             -200               0
2.17763                -6.172741       -56.73998        -28.95587       -71.24021             -200               0             -200               0
2.18421                -6.428123       -56.97381        -28.86334       -76.15871             -200               0             -200               0
2.19079                -6.693485       -57.15986        -28.77609       -81.07963             -200               0             -200               0
2.19737                -6.969121       -57.29253         -28.6941       -86.00218             -200               0             -200               0
2.20395                 -7.25531        -57.3655        -28.61736       -90.92561             -200               0             -200               0
2.21053                -7.552305       -57.37178        -28.54584       -95.84917             -200               0             -200               0
2.21711                -7.860322       -57.30355        -28.47953       -100.7721             -200               0             -200               0
2.22368                -8.179522       -57.15204         -28.4184       -105.6937             -200               0             -200               0
2.23026                -8.509994       -56.90749        -28.36244       -110.6131             -200               0             -200               0
2.23684                -8.851726         -56.559         -28.3116       -115.5298             -200               0             -200               0
2.24342                 -9.20457        -56.0944        -28.26587       -120.4429             -200               0             -200               0
2.25                     -9.5682       -55.50018        -28.22523       -125.3517             -200               0             -200               0
2.25658                -9.942059       -54.76142        -28.18963       -130.2555             -200               0             -200               0
2.26316                -10.32529       -53.86174        -28.15905       -135.1536             -200               0             -200               0
2.26974                -10.71663       -52.78332        -28.13347       -140.0453             -200               0             -200               0
2.27632                -11.11436       -51.50711        -28.11283       -144.9298             -200               0             -200               0
2.28289                -11.51613       -50.01317        -28.09711       -149.8065             -200               0             -200               0
2.28947                -11.91886        -48.2813        -28.08627       -154.6746             -200               0             -200               0