! TOUCHSTONE file generated by CST MICROWAVE STUDIO
! Date and time: Sat Mar  8 13:54:37 2025
! Project name: non_fractured.cst
! Parameters = {B=2.5; D=160; F=5; Feed=2.85625; L=100; M=10; R=0.384908; S=2.5; Theta=90; length=57.125; wave=114.25}
! Header version: 2024
! Port assignment regex: !\s*Touchstone port\s*([0-9]+)\s*=\s*(CST MWS port|CST DES external port|CST DES block port)\s*(.+)\s* \(\"(.*)\"\)(\s*mode\s*([0-9]+))?.*
! Touchstone port assignment:
! Touchstone port 1 = CST MWS port 1 ("")
! Touchstone port 2 = CST MWS port 2 ("")
# GHz S DB R 50
1                     -0.0180221       -9.747791        -69.21889       -116.0396             -200               0             -200               0
1.0066               -0.01865879       -9.836925        -68.63813       -120.9904             -200               0             -200               0
1.0132                -0.0193587       -9.926591        -68.11299       -125.9962             -200               0             -200               0
1.0198               -0.02012269       -10.01675        -67.63882        -131.038             -200               0             -200               0
1.0264               -0.02094748       -10.10735        -67.21182       -136.1003             -200               0             -200               0
1.033                -0.02182812       -10.19835        -66.82888         -141.17             -200               0             -200               0
1.0396               -0.02276098       -10.28973        -66.48748       -146.2359             -200               0             -200               0
1.0462                -0.0237387       -10.38146        -66.18556       -151.2879             -200               0             -200               0
1.05281              -0.02475377       -10.47351        -65.92145       -156.3165             -200               0             -200               0
1.05941              -0.02580037       -10.56589        -65.69383       -161.3128             -200               0             -200               0
1.06601              -0.02686769       -10.65859        -65.50165       -166.2678             -200               0             -200               0
1.07261              -0.02794902       -10.75162        -65.34416       -171.1722             -200               0             -200               0
1.07921              -0.02903392       -10.84501        -65.22078       -176.0165             -200               0             -200               0
1.08581              -0.03011652       -10.93877        -65.13115          179.21             -200               0             -200               0
1.09241              -0.03118846       -11.03297         -65.0751        174.5188             -200               0             -200               0
1.09901              -0.03224319       -11.12764        -65.05257        169.9227             -200               0             -200               0
1.10561              -0.03327428       -11.22284        -65.06366        165.4366             -200               0             -200               0
1.11221               -0.0342767       -11.31864        -65.10851        161.0774             -200               0             -200               0
1.11881              -0.03524889       -11.41511        -65.18734        156.8648             -200               0             -200               0
1.12541              -0.03619008       -11.51233        -65.30032        152.8221             -200               0             -200               0
1.13201              -0.03709774       -11.61038        -65.44751        148.9764             -200               0             -200               0
1.13861              -0.03797354       -11.70933         -65.6287        145.3601             -200               0             -200               0
1.14521              -0.03882329       -11.80926        -65.84323        142.0115             -200               0             -200               0
1.15182              -0.03964955       -11.91025        -66.08967        138.9755             -200               0             -200               0
1.15842               -0.0404599       -12.01237        -66.36542        136.3049             -200               0             -200               0
1.16502               -0.0412624       -12.11568        -66.66607        134.0602             -200               0             -200               0
1.17162              -0.04206646       -12.22025        -66.98466        132.3086             -200               0             -200               0
1.17822              -0.04288167       -12.32613        -67.31059        131.1203             -200               0             -200               0
1.18482              -0.04372004       -12.43334        -67.62858        130.5616             -200               0             -200               0
1.19142               -0.0445918       -12.54193        -67.91775        130.6811             -200               0             -200               0
1.19802              -0.04551015        -12.6519        -68.15167        131.4899             -200               0             -200               0
1.20462              -0.04648602       -12.76327        -68.30013         132.938             -200               0             -200               0
1.21122              -0.04753293       -12.87604        -68.33359        134.8949             -200               0             -200               0
1.21782              -0.04866099       -12.99018        -68.22968        137.1488             -200               0             -200               0
1.22442              -0.04988236       -13.10567        -67.97952        139.4348             -200               0             -200               0
1.23102              -0.05120257       -13.22248        -67.59054        141.4857             -200               0             -200               0
1.23762               -0.0526345       -13.34056        -67.08405        143.0852             -200               0             -200               0
1.24422              -0.05418165       -13.45987        -66.48898         144.097             -200               0             -200               0
1.25083              -0.05584982       -13.58036         -65.8353        144.4663             -200               0             -200               0
1.25743              -0.05764318       -13.70196        -65.14944        144.2013             -200               0             -200               0
1.26403              -0.05956184       -13.82462        -64.45229        143.3491             -200               0             -200               0
1.27063              -0.06160676       -13.94828         -63.7591        141.9759             -200               0             -200               0
1.27723               -0.0637761        -14.0729        -63.08032        140.1527             -200               0             -200               0
1.28383              -0.06606678       -14.19842        -62.42272        137.9478             -200               0             -200               0
1.29043              -0.06847077        -14.3248        -61.79035        135.4229             -200               0             -200               0
1.29703              -0.07098446       -14.45202        -61.18541        132.6324             -200               0             -200               0
1.30363              -0.07359797       -14.58004        -60.60883        129.6228             -200               0             -200               0
1.31023              -0.07630537       -14.70887        -60.06073        126.4338             -200               0             -200               0
1.31683              -0.07909409       -14.83849        -59.54065        123.0993             -200               0             -200               0
1.32343               -0.0819572       -14.96893        -59.04784        119.6481             -200               0             -200               0
1.33003              -0.08488396       -15.10022        -58.58132        116.1048             -200               0             -200               0
1.33663              -0.08786585       -15.23239        -58.14001        112.4907             -200               0             -200               0
1.34323              -0.09089369       -15.36549        -57.72274        108.8242             -200               0             -200               0
1.34984               -0.0939605        -15.4996        -57.32834        105.1214             -200               0             -200               0
1.35644              -0.09705959       -15.63479        -56.95562        101.3964             -200               0             -200               0
1.36304               -0.1001868       -15.77116        -56.60337        97.66181             -200               0             -200               0
1.36964               -0.1033375       -15.90878        -56.27039        93.92906             -200               0             -200               0
1.37624               -0.1065126       -16.04777        -55.95549        90.20831             -200               0             -200               0
1.38284               -0.1097117       -16.18823        -55.65745        86.50885             -200               0             -200               0
1.38944               -0.1129391       -16.33027        -55.37505        82.83912             -200               0             -200               0
1.39604               -0.1161994         -16.474        -55.10704        79.20683             -200               0             -200               0
1.40264               -0.1195002       -16.61951        -54.85214        75.61897             -200               0             -200               0
1.40924               -0.1228504       -16.76692        -54.60903        72.08188             -200               0             -200               0
1.41584               -0.1262621       -16.91631        -54.37635        68.60117             -200               0             -200               0
1.42244               -0.1297474       -17.06777        -54.15269        65.18173             -200               0             -200               0
1.42904               -0.1333232       -17.22137        -53.93658        61.82766             -200               0             -200               0
1.43564               -0.1370028       -17.37717        -53.72651         58.5422             -200               0             -200               0
1.44224               -0.1408042       -17.53524         -53.5209        55.32761             -200               0             -200               0
1.44884               -0.1447449       -17.69559        -53.31817        52.18513             -200               0             -200               0
1.45545               -0.1488408       -17.85825        -53.11668        49.11481             -200               0             -200               0
1.46205               -0.1531119       -18.02323         -52.9148        46.11547             -200               0             -200               0
1.46865                -0.157572       -18.19053        -52.71093         43.1846             -200               0             -200               0
1.47525                 -0.16224       -18.36012        -52.50349        40.31832             -200               0             -200               0
1.48185               -0.1671276       -18.53198        -52.29101        37.51138             -200               0             -200               0
1.48845               -0.1722496       -18.70606        -52.07212        34.75718             -200               0             -200               0
1.49505               -0.1776185       -18.88232        -51.84562        32.04791             -200               0             -200               0
1.50165               -0.1832409       -19.06071        -51.61049        29.37465             -200               0             -200               0
1.50825               -0.1891266       -19.24115        -51.36592        26.72763             -200               0             -200               0
1.51485               -0.1952802       -19.42361        -51.11136        24.09646             -200               0             -200               0
1.52145               -0.2017046       -19.60802         -50.8465        21.47047             -200               0             -200               0
1.52805               -0.2083995       -19.79432        -50.57131        18.83895             -200               0             -200               0
1.53465               -0.2153651       -19.98247        -50.28597        16.19152             -200               0             -200               0
1.54125               -0.2225965       -20.17244        -49.99095        13.51839             -200               0             -200               0
1.54785               -0.2300921        -20.3642        -49.68687        10.81062             -200               0             -200               0
1.55446               -0.2378418       -20.55774        -49.37457        8.060296             -200               0             -200               0
1.56106               -0.2458415       -20.75306        -49.05501          5.2607             -200               0             -200               0
1.56766               -0.2540806       -20.95018        -48.72923        2.406365             -200               0             -200               0
1.57426               -0.2625519       -21.14915        -48.39836      -0.5068959             -200               0             -200               0
1.58086                -0.271248       -21.35001        -48.06355       -3.482015             -200               0             -200               0
1.58746                 -0.28016       -21.55285        -47.72594       -6.520743             -200               0             -200               0
1.59406               -0.2892823       -21.75776        -47.38663       -9.623741             -200               0             -200               0
1.60066               -0.2986103       -21.96485        -47.04667        -12.7907             -200               0             -200               0
1.60726               -0.3081409       -22.17425        -46.70707       -16.02048             -200               0             -200               0
1.61386               -0.3178739        -22.3861        -46.36872       -19.31121             -200               0             -200               0
1.62046               -0.3278109       -22.60055        -46.03244       -22.66044             -200               0             -200               0
1.62706               -0.3379561       -22.81777        -45.69897       -26.06526             -200               0             -200               0
1.63366               -0.3483195       -23.03793        -45.36895       -29.52237             -200               0             -200               0
1.64026                -0.358912       -23.26119        -45.04294       -33.02822             -200               0             -200               0
1.64686               -0.3697479       -23.48774        -44.72139       -36.57908             -200               0             -200               0
1.65347               -0.3808474       -23.71773        -44.40469       -40.17111             -200               0             -200               0
1.66007               -0.3922311       -23.95135        -44.09315       -43.80038             -200               0             -200               0
1.66667               -0.4039241       -24.18873        -43.78701         -47.463             -200               0             -200               0
1.67327               -0.4159549       -24.43003        -43.48642       -51.15508             -200               0             -200               0
1.67987               -0.4283536       -24.67537         -43.1915       -54.87283             -200               0             -200               0
1.68647               -0.4411525       -24.92486        -42.90228       -58.61254             -200               0             -200               0
1.69307               -0.4543883       -25.17859        -42.61877       -62.37061             -200               0             -200               0
1.69967               -0.4680951       -25.43663        -42.34089       -66.14361             -200               0             -200               0
1.70627               -0.4823095       -25.69903        -42.06856       -69.92825             -200               0             -200               0
1.71287               -0.4970712       -25.96582        -41.80162       -73.72139             -200               0             -200               0
1.71947               -0.5124141       -26.23701        -41.53989        -77.5201             -200               0             -200               0
1.72607               -0.5283762       -26.51257        -41.28316       -81.32164             -200               0             -200               0
1.73267               -0.5449915       -26.79248        -41.03116       -85.12345             -200               0             -200               0
1.73927               -0.5622935       -27.07668        -40.78362       -88.92321             -200               0             -200               0
1.74587               -0.5803126       -27.36512        -40.54023       -92.71882             -200               0             -200               0
1.75248                -0.599078       -27.65771        -40.30064        -96.5084             -200               0             -200               0
1.75908               -0.6186137       -27.95437        -40.06451       -100.2904             -200               0             -200               0
1.76568                -0.638944       -28.25501        -39.83146       -104.0633             -200               0             -200               0
1.77228               -0.6600869       -28.55954        -39.60109       -107.8262             -200               0             -200               0
1.77888               -0.6820595        -28.8679          -39.373       -111.5781             -200               0             -200               0
1.78548               -0.7048751       -29.17999        -39.14678       -115.3186             -200               0             -200               0
1.79208               -0.7285434       -29.49575        -38.92202       -119.0474             -200               0             -200               0
1.79868               -0.7530724       -29.81516        -38.69829       -122.7647             -200               0             -200               0
1.80528                -0.778468       -30.13817        -38.47519       -126.4706             -200               0             -200               0
1.81188               -0.8047339       -30.46481        -38.25231       -130.1659             -200               0             -200               0
1.81848               -0.8318746       -30.79509        -38.02926       -133.8516             -200               0             -200               0
1.82508               -0.8598916        -31.1291        -37.80567       -137.5288             -200               0             -200               0
1.83168               -0.8887881       -31.46691        -37.58119        -141.199             -200               0             -200               0
1.83828               -0.9185701       -31.80866         -37.3555       -144.8641             -200               0             -200               0
1.84488               -0.9492438       -32.15454        -37.12833       -148.5259             -200               0             -200               0
1.85149               -0.9808198       -32.50472        -36.89941       -152.1867             -200               0             -200               0
1.85809                -1.013311       -32.85945        -36.66853       -155.8488             -200               0             -200               0
1.86469                -1.046739         -33.219        -36.43554       -159.5146             -200               0             -200               0
1.87129                -1.081127       -33.58367        -36.20031       -163.1869             -200               0             -200               0
1.87789                -1.116508       -33.95377        -35.96276       -166.8683             -200               0             -200               0
1.88449                -1.152921       -34.32966        -35.72286       -170.5613             -200               0             -200               0
1.89109                -1.190414       -34.71169        -35.48064       -174.2688             -200               0             -200               0
1.89769                -1.229043       -35.10024        -35.23616       -177.9934             -200               0             -200               0
1.90429                -1.268874       -35.49567        -34.98951        178.2625             -200               0             -200               0
1.91089                -1.309984       -35.89837        -34.74085        174.4964             -200               0             -200               0
1.91749                -1.352457       -36.30868        -34.49036        170.7061             -200               0             -200               0
1.92409                 -1.39639       -36.72697        -34.23826        166.8893             -200               0             -200               0
1.93069                -1.441888       -37.15353        -33.98479        163.0443             -200               0             -200               0
1.93729                -1.489067       -37.58868        -33.73021        159.1692             -200               0             -200               0
1.94389                -1.538053       -38.03264        -33.47482        155.2626             -200               0             -200               0
1.9505                  -1.58898       -38.48564        -33.21892        151.3233             -200               0             -200               0
1.9571                 -1.641992       -38.94781        -32.96283        147.3501             -200               0             -200               0
1.9637                 -1.697241       -39.41925        -32.70686        143.3421             -200               0             -200               0
1.9703                 -1.754885           -39.9        -32.45135        139.2989             -200               0             -200               0
1.9769                 -1.815091       -40.39001         -32.1966        135.2199             -200               0             -200               0
1.9835                 -1.878028       -40.88918        -31.94295        131.1048             -200               0             -200               0
1.9901                 -1.943876       -41.39734        -31.69071        126.9537             -200               0             -200               0
1.9967                 -2.012815       -41.91423        -31.44018        122.7667             -200               0             -200               0
2.0033                 -2.085029       -42.43949        -31.19166         118.544             -200               0             -200               0
2.0099                 -2.160706       -42.97275        -30.94543        114.2859             -200               0             -200               0
2.0165                 -2.240033       -43.51349        -30.70176        109.9931             -200               0             -200               0
2.0231                   -2.3232       -44.06114        -30.46091        105.6661             -200               0             -200               0
2.0297                 -2.410401       -44.61506        -30.22312        101.3057             -200               0             -200               0
2.0363                 -2.501823       -45.17454        -29.98862        96.91259             -200               0             -200               0
2.0429                 -2.597657       -45.73875        -29.75761         92.4877             -200               0             -200               0
2.0495                 -2.698092       -46.30685        -29.53031        88.03194             -200               0             -200               0
2.05611                -2.803317       -46.87788        -29.30688        83.54626             -200               0             -200               0
2.06271                -2.913517       -47.45083        -29.08751        79.03168             -200               0             -200               0
2.06931                -3.028878       -48.02463        -28.87235        74.48921             -200               0             -200               0
2.07591                -3.149585       -48.59814        -28.66153         69.9199             -200               0             -200               0
2.08251                -3.275821       -49.17014         -28.4552        65.32481             -200               0             -200               0
2.08911                -3.407768       -49.73938        -28.25348          60.705             -200               0             -200               0
2.09571                -3.545611       -50.30452        -28.05646        56.06156             -200               0             -200               0
2.10231                -3.689532       -50.86417        -27.86426        51.39554             -200               0             -200               0
2.10891                -3.839716       -51.41688        -27.67696        46.70799             -200               0             -200               0
2.11551                -3.996353       -51.96112        -27.49463        41.99999             -200               0             -200               0
2.12211                -4.159631       -52.49531        -27.31736        37.27255             -200               0             -200               0
2.12871                -4.329748       -53.01777        -27.14521        32.52673             -200               0             -200               0
2.13531                -4.506906       -53.52678        -26.97823        27.76351             -200               0             -200               0
2.14191                -4.691316       -54.02046        -26.81648        22.98391             -200               0             -200               0
2.14851                -4.883197       -54.49691           -26.66        18.18891             -200               0             -200               0
2.15512                -5.082779       -54.95404        -26.50883        13.37946             -200               0             -200               0
2.16172                -5.290308       -55.38966        -26.36301        8.556507             -200               0             -200               0
2.16832                -5.506043       -55.80143        -26.22256        3.720989             -200               0             -200               0
2.17492                -5.730259       -56.18679        -26.08751       -1.126188             -200               0             -200               0
2.18152                -5.963254       -56.54298        -25.95789       -5.984129             -200               0             -200               0
2.18812                -6.205342       -56.86699        -25.83371       -10.85196             -200               0             -200               0
2.19472                -6.456866        -57.1555        -25.71499       -15.72882             -200               0             -200               0
2.20132                -6.718191       -57.40481        -25.60175       -20.61385             -200               0             -200               0
2.20792                -6.989706       -57.61083        -25.49398       -25.50624             -200               0             -200               0
2.21452                -7.271829       -57.76895        -25.39171       -30.40516             -200               0             -200               0
2.22112                -7.565003       -57.87396        -25.29493        -35.3098             -200               0             -200               0
2.22772                -7.869698       -57.91992        -25.20365       -40.21938             -200               0             -200               0
2.23432                -8.186403        -57.9001        -25.11788       -45.13311             -200               0             -200               0
2.24092                -8.515623       -57.80675        -25.03762       -50.05022             -200               0             -200               0
2.24752                -8.857869       -57.63094        -24.96286       -54.96996             -200               0             -200               0
2.25413                -9.213642       -57.36237         -24.8936       -59.89155             -200               0             -200               0
2.26073                -9.583414       -56.98907        -24.82984       -64.81426             -200               0             -200               0
2.26733                -9.967593       -56.49717        -24.77158       -69.73734             -200               0             -200               0
2.27393                -10.36648       -55.87055        -24.71882       -74.66006             -200               0             -200               0
2.28053                -10.78021       -55.09043        -24.67153       -79.58168             -200               0             -200               0
2.28713                -11.20864       -54.13506        -24.62973       -84.50147             -200               0             -200               0
2.29373                -11.65127       -52.97928         -24.5934       -89.41871             -200               0             -200               0