! TOUCHSTONE file generated by CST MICROWAVE STUDIO
! Date and time: Sat Mar  8 13:55:17 2025
! Project name: non_fractured.cst
! Parameters = {B=2.5; D=160; F=10; Feed=2.85625; L=100; M=20; R=0.384908; S=1.5; Theta=270; length=57.125; wave=114.25}
! Header version: 2024
! Port assignment regex: !\s*Touchstone port\s*([0-9]+)\s*=\s*(CST MWS port|CST DES external port|CST DES block port)\s*(.+)\s* \(\"(.*)\"\)(\s*mode\s*([0-9]+))?.*
! Touchstone port assignment:
! Touchstone port 1 = CST MWS port 1 ("")
! Touchstone port 2 = CST MWS port 2 ("")
# GHz S DB R 50
1                    -0.01720941       -9.742999        -69.38678       -128.9571             -200               0             -200               0
1.0066               -0.01812929        -9.83283        -68.98467       -133.3165             -200               0             -200               0
1.0132               -0.01913427       -9.922879        -68.61734       -137.6729             -200               0             -200               0
1.0198               -0.02021334       -10.01308        -68.28283       -142.0126             -200               0             -200               0
1.0264               -0.02135672        -10.1034        -67.97937       -146.3229             -200               0             -200               0
1.033                -0.02255178       -10.19378        -67.70537       -150.5917             -200               0             -200               0
1.0396               -0.02378379       -10.28421        -67.45935       -154.8073             -200               0             -200               0
1.0462               -0.02503974       -10.37469        -67.23988       -158.9584             -200               0             -200               0
1.05281              -0.02630509       -10.46522        -67.04562       -163.0335             -200               0             -200               0
1.05941              -0.02756474       -10.55584        -66.87519       -167.0209             -200               0             -200               0
1.06601              -0.02880629       -10.64658        -66.72718       -170.9088             -200               0             -200               0
1.07261              -0.03001678       -10.73751        -66.60007        -174.685             -200               0             -200               0
1.07921              -0.03118494        -10.8287        -66.49223        -178.337             -200               0             -200               0
1.08581              -0.03230116       -10.92024        -66.40181         178.148             -200               0             -200               0
1.09241              -0.03335899       -11.01223        -66.32673        174.7827             -200               0             -200               0
1.09901               -0.0343534       -11.10477        -66.26457        171.5798             -200               0             -200               0
1.10561              -0.03528007       -11.19797        -66.21257        168.5515             -200               0             -200               0
1.11221               -0.0361408       -11.29194        -66.16755        165.7089             -200               0             -200               0
1.11881              -0.03693791       -11.38681        -66.12585         163.061             -200               0             -200               0
1.12541              -0.03767618       -11.48267        -66.08336        160.6144             -200               0             -200               0
1.13201              -0.03836384       -11.57964        -66.03553        158.3719             -200               0             -200               0
1.13861              -0.03900972       -11.67781        -65.97744        156.3312             -200               0             -200               0
1.14521              -0.03962711       -11.77727        -65.90397         154.484             -200               0             -200               0
1.15182              -0.04022915       -11.87808        -65.80998        152.8153             -200               0             -200               0
1.15842              -0.04083146       -11.98031        -65.69064        151.3023             -200               0             -200               0
1.16502              -0.04144862       -12.08401        -65.54174        149.9153             -200               0             -200               0
1.17162              -0.04209938       -12.18919           -65.36        148.6181             -200               0             -200               0
1.17822              -0.04279981       -12.29586         -65.1434          147.37             -200               0             -200               0
1.18482              -0.04356566       -12.40402        -64.89131         146.128             -200               0             -200               0
1.19142              -0.04441365       -12.51363        -64.60455          144.85             -200               0             -200               0
1.19802               -0.0453584       -12.62467        -64.28531        143.4968             -200               0             -200               0
1.20462              -0.04641304       -12.73707        -63.93688        142.0347             -200               0             -200               0
1.21122              -0.04758856       -12.85077        -63.56337        140.4369             -200               0             -200               0
1.21782               -0.0488936       -12.96569        -63.16936        138.6839             -200               0             -200               0
1.22442               -0.0503356       -13.08175        -62.75957        136.7636             -200               0             -200               0
1.23102              -0.05191811       -13.19886        -62.33862        134.6703             -200               0             -200               0
1.23762              -0.05364311       -13.31692        -61.91081        132.4042             -200               0             -200               0
1.24422                -0.055509       -13.43586        -61.48004        129.9697             -200               0             -200               0
1.25083              -0.05751243       -13.55559         -61.0497        127.3747             -200               0             -200               0
1.25743              -0.05964628       -13.67602        -60.62267        124.6293             -200               0             -200               0
1.26403              -0.06190292       -13.79711        -60.20137         121.745             -200               0             -200               0
1.27063              -0.06427127       -13.91878        -59.78776        118.7343             -200               0             -200               0
1.27723              -0.06674017       -14.04101        -59.38341        115.6097             -200               0             -200               0
1.28383              -0.06929584       -14.16376        -58.98953         112.384             -200               0             -200               0
1.29043              -0.07192306       -14.28704        -58.60703        109.0694             -200               0             -200               0
1.29703              -0.07460824       -14.41085        -58.23659        105.6777             -200               0             -200               0
1.30363              -0.07733631       -14.53523        -57.87866        102.2203             -200               0             -200               0
1.31023              -0.08009402       -14.66023        -57.53351        98.70775             -200               0             -200               0
1.31683              -0.08286799       -14.78592        -57.20127         95.1503             -200               0             -200               0
1.32343              -0.08564664       -14.91238        -56.88195        91.55746             -200               0             -200               0
1.33003              -0.08842036       -15.03972        -56.57543        87.93818             -200               0             -200               0
1.33663              -0.09118119       -15.16803        -56.28152        84.30096             -200               0             -200               0
1.34323                -0.093925       -15.29745        -55.99994        80.65375             -200               0             -200               0
1.34984              -0.09664889       -15.42811        -55.73033         77.0041             -200               0             -200               0
1.35644              -0.09935435       -15.56013        -55.47227        73.35911             -200               0             -200               0
1.36304               -0.1020438       -15.69366        -55.22528        69.72548             -200               0             -200               0
1.36964                -0.104725       -15.82883        -54.98881        66.10953             -200               0             -200               0
1.37624               -0.1074073       -15.96576        -54.76226        62.51721             -200               0             -200               0
1.38284               -0.1101012       -16.10458        -54.54497        58.95406             -200               0             -200               0
1.38944               -0.1128233       -16.24539        -54.33621        55.42528             -200               0             -200               0
1.39604               -0.1155884       -16.38829        -54.13519        51.93562             -200               0             -200               0
1.40264               -0.1184161       -16.53335        -53.94108        48.48938             -200               0             -200               0
1.40924               -0.1213249       -16.68064        -53.75295        45.09038             -200               0             -200               0
1.41584                -0.124336        -16.8302        -53.56987        41.74192             -200               0             -200               0
1.42244               -0.1274687       -16.98206         -53.3908        38.44666             -200               0             -200               0
1.42904               -0.1307458       -17.13622        -53.21468        35.20663             -200               0             -200               0
1.43564               -0.1341839       -17.29265         -53.0404        32.02312             -200               0             -200               0
1.44224               -0.1378052       -17.45135        -52.86683         28.8966             -200               0             -200               0
1.44884               -0.1416242       -17.61225        -52.69281        25.82669             -200               0             -200               0
1.45545               -0.1456569       -17.77531        -52.51719        22.81209             -200               0             -200               0
1.46205               -0.1499148       -17.94043        -52.33882        19.85056             -200               0             -200               0
1.46865               -0.1544087       -18.10754        -52.15661        16.93885             -200               0             -200               0
1.47525               -0.1591449       -18.27657        -51.96952        14.07279             -200               0             -200               0
1.48185               -0.1641267       -18.44741        -51.77661        11.24728             -200               0             -200               0
1.48845               -0.1693562          -18.62        -51.57703        8.456392             -200               0             -200               0
1.49505               -0.1748303       -18.79424        -51.37009        5.693463             -200               0             -200               0
1.50165               -0.1805438       -18.97006        -51.15522        2.951253             -200               0             -200               0
1.50825               -0.1864892       -19.14742        -50.93205       0.2221133             -200               0             -200               0
1.51485               -0.1926569       -19.32627        -50.70036       -2.501821             -200               0             -200               0
1.52145               -0.1990342       -19.50658        -50.46011       -5.228432             -200               0             -200               0
1.52805               -0.2056082       -19.68835        -50.21145       -7.965421             -200               0             -200               0
1.53465               -0.2123648       -19.87162        -49.95467       -10.72011             -200               0             -200               0
1.54125               -0.2192883       -20.05641        -49.69024        -13.4993             -200               0             -200               0
1.54785               -0.2263655        -20.2428        -49.41872       -16.30908             -200               0             -200               0
1.55446               -0.2335822       -20.43088        -49.14081       -19.15476             -200               0             -200               0
1.56106               -0.2409262       -20.62077        -48.85727       -22.04082             -200               0             -200               0
1.56766               -0.2483884       -20.81262        -48.56892        -24.9708             -200               0             -200               0
1.57426               -0.2559595       -21.00657        -48.27662       -27.94737             -200               0             -200               0
1.58086               -0.2636373       -21.20281        -47.98124       -30.97232             -200               0             -200               0
1.58746               -0.2714196       -21.40154        -47.68362       -34.04659             -200               0             -200               0
1.59406               -0.2793093       -21.60296         -47.3846       -37.17038             -200               0             -200               0
1.60066               -0.2873145       -21.80727        -47.08496        -40.3432             -200               0             -200               0
1.60726                -0.295446        -22.0147        -46.78544       -43.56395             -200               0             -200               0
1.61386               -0.3037208       -22.22547        -46.48671         -46.831             -200               0             -200               0
1.62046               -0.3121598       -22.43976        -46.18939       -50.14229             -200               0             -200               0
1.62706               -0.3207844       -22.65781        -45.89402       -53.49542             -200               0             -200               0
1.63366               -0.3296266       -22.87977        -45.60107       -56.88768             -200               0             -200               0
1.64026               -0.3387163       -23.10583        -45.31094       -60.31616             -200               0             -200               0
1.64686               -0.3480879       -23.33613        -45.02396       -63.77782             -200               0             -200               0
1.65347               -0.3577814       -23.57079         -44.7404        -67.2695             -200               0             -200               0
1.66007               -0.3678357       -23.80992        -44.46047       -70.78798             -200               0             -200               0
1.66667               -0.3782913       -24.05358         -44.1843       -74.33009             -200               0             -200               0
1.67327               -0.3891905       -24.30182        -43.91197       -77.89264             -200               0             -200               0
1.67987               -0.4005748       -24.55465        -43.64351       -81.47255             -200               0             -200               0
1.68647               -0.4124857       -24.81207        -43.37889        -85.0668             -200               0             -200               0
1.69307               -0.4249624       -25.07402        -43.11804       -88.67253             -200               0             -200               0
1.69967               -0.4380426       -25.34045        -42.86083       -92.28702             -200               0             -200               0
1.70627               -0.4517618       -25.61128        -42.60711        -95.9077             -200               0             -200               0
1.71287               -0.4661508       -25.88641        -42.35666       -99.53221             -200               0             -200               0
1.71947               -0.4812405       -26.16573        -42.10925       -103.1584             -200               0             -200               0
1.72607               -0.4970537        -26.4491        -41.86462       -106.7843             -200               0             -200               0
1.73267               -0.5136101       -26.73642        -41.62246       -110.4084             -200               0             -200               0
1.73927               -0.5309306       -27.02754        -41.38246        -114.029             -200               0             -200               0
1.74587               -0.5490235       -27.32236        -41.14426       -117.6452             -200               0             -200               0
1.75248               -0.5679019       -27.62076        -40.90751        -121.256             -200               0             -200               0
1.75908               -0.5875666       -27.92267        -40.67183       -124.8608             -200               0             -200               0
1.76568               -0.6080231       -28.22799        -40.43686       -128.4594             -200               0             -200               0
1.77228               -0.6292703       -28.53671         -40.2022       -132.0519             -200               0             -200               0
1.77888               -0.6513044       -28.84879        -39.96748       -135.6385             -200               0             -200               0
1.78548               -0.6741243       -29.16427        -39.73234         -139.22             -200               0             -200               0
1.79208               -0.6977255       -29.48319         -39.4964       -142.7973             -200               0             -200               0
1.79868               -0.7221043       -29.80566        -39.25935       -146.3716             -200               0             -200               0
1.80528               -0.7472595       -30.13178        -39.02086       -149.9444             -200               0             -200               0
1.81188               -0.7731921       -30.46175        -38.78065       -153.5175             -200               0             -200               0
1.81848                -0.799906       -30.79575        -38.53848        -157.093             -200               0             -200               0
1.82508               -0.8274104       -31.13404        -38.29412       -160.6729             -200               0             -200               0
1.83168               -0.8557195       -31.47686        -38.04742       -164.2597             -200               0             -200               0
1.83828                -0.884855       -31.82455        -37.79824       -167.8559             -200               0             -200               0
1.84488               -0.9148427        -32.1774        -37.54651       -171.4639             -200               0             -200               0
1.85149               -0.9457201       -32.53576        -37.29219       -175.0864             -200               0             -200               0
1.85809               -0.9775295       -32.89997        -37.03528        -178.726             -200               0             -200               0
1.86469                -1.010325        -33.2704        -36.77586        177.6146             -200               0             -200               0
1.87129                -1.044168       -33.64739        -36.51403         173.933             -200               0             -200               0
1.87789                -1.079129       -34.03129        -36.24992        170.2268             -200               0             -200               0
1.88449                 -1.11529       -34.42241        -35.98372        166.4936             -200               0             -200               0
1.89109                 -1.15274       -34.82107        -35.71564        162.7314             -200               0             -200               0
1.89769                -1.191577       -35.22751        -35.44594        158.9382             -200               0             -200               0
1.90429                -1.231908       -35.64197        -35.17487        155.1124             -200               0             -200               0
1.91089                -1.273849       -36.06464        -34.90275        151.2522             -200               0             -200               0
1.91749                 -1.31752       -36.49563        -34.62987        147.3566             -200               0             -200               0
1.92409                -1.363049       -36.93503        -34.35656        143.4244             -200               0             -200               0
1.93069                -1.410573       -37.38285        -34.08315        139.4547             -200               0             -200               0
1.93729                -1.460227       -37.83903        -33.80997        135.4468             -200               0             -200               0
1.94389                -1.512154       -38.30347        -33.53735        131.4005             -200               0             -200               0
1.9505                 -1.566497       -38.77597        -33.26562        127.3154             -200               0             -200               0
1.9571                 -1.623404       -39.25628        -32.99512        123.1914             -200               0             -200               0
1.9637                  -1.68302       -39.74408        -32.72614        119.0288             -200               0             -200               0
1.9703                 -1.745494       -40.23898        -32.45901        114.8277             -200               0             -200               0
1.9769                 -1.810968       -40.74052          -32.194        110.5886             -200               0             -200               0
1.9835                 -1.879587        -41.2482        -31.93141         106.312             -200               0             -200               0
1.9901                  -1.95149       -41.76143        -31.67149        101.9986             -200               0             -200               0
1.9967                 -2.026817       -42.27957        -31.41449        97.64914             -200               0             -200               0
2.0033                 -2.105699       -42.80195        -31.16066        93.26444             -200               0             -200               0
2.0099                 -2.188267       -43.32784         -30.9102        88.84539             -200               0             -200               0
2.0165                 -2.274647       -43.85645        -30.66333        84.39297             -200               0             -200               0
2.0231                 -2.364958       -44.38699        -30.42023        79.90816             -200               0             -200               0
2.0297                  -2.45932        -44.9186        -30.18108        75.39202             -200               0             -200               0
2.0363                 -2.557841       -45.45041        -29.94603        70.84562             -200               0             -200               0
2.0429                 -2.660633       -45.98154        -29.71525        66.27002             -200               0             -200               0
2.0495                   -2.7678       -46.51108        -29.48886        61.66636             -200               0             -200               0
2.05611                -2.879446       -47.03808        -29.26698        57.03571             -200               0             -200               0
2.06271                -2.995672       -47.56162        -29.04972         52.3792             -200               0             -200               0
2.06931                -3.116577       -48.08075        -28.83719        47.69794             -200               0             -200               0
2.07591                -3.242263        -48.5945        -28.62948          42.993             -200               0             -200               0
2.08251                -3.372829       -49.10192        -28.42667        38.26549             -200               0             -200               0
2.08911                -3.508382       -49.60203        -28.22882        33.51647             -200               0             -200               0
2.09571                -3.649028       -50.09385        -28.03602        28.74701             -200               0             -200               0
2.10231                -3.794883       -50.57639         -27.8483        23.95814             -200               0             -200               0
2.10891                -3.946065       -51.04861        -27.66572         19.1509             -200               0             -200               0
2.11551                -4.102708       -51.50949        -27.48833        14.32628             -200               0             -200               0
2.12211                 -4.26495       -51.95792        -27.31616        9.485267             -200               0             -200               0
2.12871                -4.432944        -52.3928        -27.14925        4.628835             -200               0             -200               0
2.13531                -4.606856       -52.81292        -26.98762      -0.2420766             -200               0             -200               0
2.14191                -4.786872       -53.21702         -26.8313       -5.126539             -200               0             -200               0
2.14851                -4.973189       -53.60372        -26.68031       -10.02364             -200               0             -200               0
2.15512                -5.166028       -53.97153        -26.53466       -14.93251             -200               0             -200               0
2.16172                -5.365629       -54.31883        -26.39437       -19.85226             -200               0             -200               0
2.16832                -5.572255       -54.64378        -26.25945       -24.78204             -200               0             -200               0
2.17492                 -5.78619       -54.94436         -26.1299       -29.72103             -200               0             -200               0
2.18152                -6.007743       -55.21828        -26.00573        -34.6684             -200               0             -200               0
2.18812                -6.237249       -55.46295        -25.88694       -39.62334             -200               0             -200               0
2.19472                -6.475065       -55.67544        -25.77354       -44.58508             -200               0             -200               0
2.20132                -6.721573        -55.8524        -25.66551       -49.55284             -200               0             -200               0
2.20792                -6.977178       -55.99002        -25.56287       -54.52584             -200               0             -200               0
2.21452                -7.242303       -56.08392        -25.46559       -59.50336             -200               0             -200               0
2.22112                -7.517391       -56.12906        -25.37369       -64.48463             -200               0             -200               0
2.22772                -7.802891       -56.11971        -25.28714       -69.46895             -200               0             -200               0
2.23432                -8.099261       -56.04923        -25.20595       -74.45557             -200               0             -200               0
2.24092                -8.406946       -55.91002         -25.1301        -79.4438             -200               0             -200               0
2.24752                -8.726375       -55.69335        -25.05958       -84.43293             -200               0             -200               0
2.25413                -9.057931       -55.38918        -24.99438       -89.42225             -200               0             -200               0
2.26073                -9.401931       -54.98599        -24.93449       -94.41107             -200               0             -200               0
2.26733                -9.758585       -54.47053         -24.8799        -99.3987             -200               0             -200               0
2.27393                -10.12795       -53.82773        -24.83058       -104.3845             -200               0             -200               0
2.28053                -10.50987       -53.04034        -24.78653       -109.3677             -200               0             -200               0
2.28713                -10.90389       -52.08882        -24.74772       -114.3476             -200               0             -200               0
2.29373                -11.30912       -50.95118        -24.71414       -119.3236             -200               0             -200               0