! TOUCHSTONE file generated by CST MICROWAVE STUDIO
! Date and time: Sat Mar  8 13:55:53 2025
! Project name: non_fractured.cst
! Parameters = {B=2.5; D=160; F=5; Feed=2.85625; L=100; M=30; R=0.384908; S=2.5; Theta=180; length=57.125; wave=114.25}
! Header version: 2024
! Port assignment regex: !\s*Touchstone port\s*([0-9]+)\s*=\s*(CST MWS port|CST DES external port|CST DES block port)\s*(.+)\s* \(\"(.*)\"\)(\s*mode\s*([0-9]+))?.*
! Touchstone port assignment:
! Touchstone port 1 = CST MWS port 1 ("")
! Touchstone port 2 = CST MWS port 2 ("")
# GHz S DB R 50
1                    -0.01884648       -9.745628        -69.23783       -143.6384             -200               0             -200               0
1.0066               -0.01973789       -9.834377        -68.85795       -147.9286             -200               0             -200               0
1.0132               -0.02068843        -9.92341        -68.51029       -152.2449             -200               0             -200               0
1.0198               -0.02169156       -10.01269        -68.19354       -156.5723             -200               0             -200               0
1.0264               -0.02273736       -10.10219        -67.90651        -160.897             -200               0             -200               0
1.033                -0.02381772        -10.1919        -67.64811       -165.2061             -200               0             -200               0
1.0396               -0.02492257       -10.28181        -67.41735       -169.4873             -200               0             -200               0
1.0462               -0.02604118       -10.37193         -67.2133       -173.7287             -200               0             -200               0
1.05281               -0.0271648       -10.46228        -67.03509       -177.9184             -200               0             -200               0
1.05941              -0.02828348       -10.55289        -66.88184        177.9556             -200               0             -200               0
1.06601              -0.02938794       -10.64381        -66.75268        173.9056             -200               0             -200               0
1.07261              -0.03046903       -10.73508        -66.64669        169.9443             -200               0             -200               0
1.07921              -0.03152245       -10.82677        -66.56287        166.0852             -200               0             -200               0
1.08581              -0.03254218       -10.91895        -66.50009        162.3421             -200               0             -200               0
1.09241              -0.03352246       -11.01169        -66.45705        158.7299             -200               0             -200               0
1.09901              -0.03446297       -11.10509        -66.43218        155.2641             -200               0             -200               0
1.10561              -0.03536343       -11.19921         -66.4236        151.9609             -200               0             -200               0
1.11221              -0.03622544       -11.29415        -66.42906        148.8366             -200               0             -200               0
1.11881              -0.03705226       -11.38999        -66.44578         145.908             -200               0             -200               0
1.12541              -0.03785025        -11.4868        -66.47044        143.1909             -200               0             -200               0
1.13201              -0.03862444       -11.58466        -66.49904        140.6999             -200               0             -200               0
1.13861              -0.03938571       -11.68364        -66.52688        138.4465             -200               0             -200               0
1.14521              -0.04014258       -11.78378        -66.54854        136.4385             -200               0             -200               0
1.15182              -0.04090647       -11.88514        -66.55793        134.6775             -200               0             -200               0
1.15842              -0.04168812       -11.98775        -66.54846         133.157             -200               0             -200               0
1.16502               -0.0425002       -12.09163        -66.51337        131.8612             -200               0             -200               0
1.17162              -0.04335516        -12.1968        -66.44608        130.7633             -200               0             -200               0
1.17822              -0.04426441       -12.30325        -66.34076        129.8257             -200               0             -200               0
1.18482              -0.04524122       -12.41097        -66.19287        129.0009             -200               0             -200               0
1.19142              -0.04629415       -12.51993        -65.99963        128.2342             -200               0             -200               0
1.19802              -0.04743353        -12.6301        -65.76034        127.4675             -200               0             -200               0
1.20462              -0.04866911       -12.74143        -65.47645        126.6442             -200               0             -200               0
1.21122              -0.05000561       -12.85387        -65.15137        125.7128             -200               0             -200               0
1.21782              -0.05144953       -12.96737        -64.79001        124.6304             -200               0             -200               0
1.22442              -0.05300289       -13.08186        -64.39833        123.3651             -200               0             -200               0
1.23102              -0.05466727       -13.19729         -63.9827        121.8956             -200               0             -200               0
1.23762               -0.0564425       -13.31359         -63.5495        120.2112             -200               0             -200               0
1.24422              -0.05832542        -13.4307         -63.1047          118.31             -200               0             -200               0
1.25083                -0.060312       -13.54858         -62.6537        116.1969             -200               0             -200               0
1.25743              -0.06239494       -13.66718        -62.20114        113.8818             -200               0             -200               0
1.26403              -0.06456751       -13.78647        -61.75092        111.3783             -200               0             -200               0
1.27063              -0.06682014       -13.90642        -61.30624        108.7017             -200               0             -200               0
1.27723              -0.06914472       -14.02701        -60.86963        105.8684             -200               0             -200               0
1.28383               -0.0715285       -14.14826        -60.44307         102.895             -200               0             -200               0
1.29043              -0.07396178       -14.27018        -60.02805        99.79786             -200               0             -200               0
1.29703              -0.07643385       -14.39279        -59.62565        96.59258             -200               0             -200               0
1.30363              -0.07893378       -14.51615        -59.23662        93.29404             -200               0             -200               0
1.31023               -0.0814523        -14.6403        -58.86144        89.91619             -200               0             -200               0
1.31683              -0.08398105       -14.76532        -58.50038        86.47206             -200               0             -200               0
1.32343              -0.08651282       -14.89129        -58.15352        82.97376             -200               0             -200               0
1.33003              -0.08904177        -15.0183        -57.82079        79.43257             -200               0             -200               0
1.33663              -0.09156413       -15.14646          -57.502        75.85896             -200               0             -200               0
1.34323              -0.09407917       -15.27586        -57.19687        72.26265             -200               0             -200               0
1.34984              -0.09658608       -15.40662          -56.905        68.65272             -200               0             -200               0
1.35644              -0.09908913       -15.53884        -56.62596         65.0376             -200               0             -200               0
1.36304               -0.1015921       -15.67265        -56.35921        61.42518             -200               0             -200               0
1.36964               -0.1041039       -15.80814        -56.10417        57.82281             -200               0             -200               0
1.37624               -0.1066323       -15.94542        -55.86018        54.23734             -200               0             -200               0
1.38284               -0.1091899       -16.08458        -55.62654        50.67513             -200               0             -200               0
1.38944               -0.1117888        -16.2257        -55.40248        47.14205             -200               0             -200               0
1.39604               -0.1144432       -16.36886        -55.18716        43.64352             -200               0             -200               0
1.40264               -0.1171691       -16.51412         -54.9797         40.1844             -200               0             -200               0
1.40924               -0.1199834       -16.66152        -54.77915        36.76904             -200               0             -200               0
1.41584                -0.122901       -16.81109        -54.58451        33.40119             -200               0             -200               0
1.42244               -0.1259393       -16.96286        -54.39471        30.08397             -200               0             -200               0
1.42904               -0.1291148       -17.11682        -54.20867        26.81978             -200               0             -200               0
1.43564               -0.1324428       -17.27297        -54.02521        23.61028             -200               0             -200               0
1.44224               -0.1359375       -17.43128        -53.84318        20.45628             -200               0             -200               0
1.44884               -0.1396116       -17.59172        -53.66136        17.35771             -200               0             -200               0
1.45545               -0.1434755       -17.75426        -53.47856        14.31355             -200               0             -200               0
1.46205               -0.1475404       -17.91883        -53.29359        11.32176             -200               0             -200               0
1.46865               -0.1518121        -18.0854        -53.10532        8.379344             -200               0             -200               0
1.47525                -0.156297       -18.25391        -52.91266        5.482281             -200               0             -200               0
1.48185               -0.1609962        -18.4243        -52.71462        2.625599             -200               0             -200               0
1.48845               -0.1659115       -18.59652         -52.5103      -0.1965528             -200               0             -200               0
1.49505               -0.1710411       -18.77054        -52.29897       -2.990794             -200               0             -200               0
1.50165               -0.1763813       -18.94631        -52.08002       -5.764366             -200               0             -200               0
1.50825               -0.1819272       -19.12382        -51.85304       -8.524966             -200               0             -200               0
1.51485               -0.1876723       -19.30305        -51.61777       -11.28054             -200               0             -200               0
1.52145               -0.1936086       -19.48401        -51.37415       -14.03909             -200               0             -200               0
1.52805               -0.1997274       -19.66673         -51.1223       -16.80846             -200               0             -200               0
1.53465               -0.2060201       -19.85124        -50.86251       -19.59612             -200               0             -200               0
1.54125               -0.2124779       -20.03759         -50.5952       -22.40903             -200               0             -200               0
1.54785               -0.2190932       -20.22588        -50.32097       -25.25347             -200               0             -200               0
1.55446               -0.2258584       -20.41619        -50.04051       -28.13489             -200               0             -200               0
1.56106               -0.2327683       -20.60863        -49.75457       -31.05792             -200               0             -200               0
1.56766                -0.239818       -20.80333        -49.46401       -34.02622             -200               0             -200               0
1.57426               -0.2470078       -21.00043         -49.1697       -37.04258             -200               0             -200               0
1.58086                -0.254337       -21.20009        -48.87252       -40.10885             -200               0             -200               0
1.58746               -0.2618108       -21.40246        -48.57334       -43.22604             -200               0             -200               0
1.59406               -0.2694355       -21.60773        -48.27303       -46.39438             -200               0             -200               0
1.60066               -0.2772217       -21.81605         -47.9724       -49.61336             -200               0             -200               0
1.60726               -0.2851834       -22.02761        -47.67221       -52.88187             -200               0             -200               0
1.61386               -0.2933372       -22.24257        -47.37316       -56.19824             -200               0             -200               0
1.62046                -0.301704        -22.4611        -47.07589       -59.56034             -200               0             -200               0
1.62706               -0.3103048       -22.68336        -46.78097       -62.96566             -200               0             -200               0
1.63366               -0.3191695        -22.9095         -46.4889       -66.41142             -200               0             -200               0
1.64026               -0.3283237       -23.13963        -46.20011       -69.89455             -200               0             -200               0
1.64686               -0.3377992       -23.37388        -45.91495       -73.41187             -200               0             -200               0
1.65347               -0.3476295       -23.61235        -45.63372       -76.96006             -200               0             -200               0
1.66007               -0.3578464        -23.8551        -45.35664       -80.53572             -200               0             -200               0
1.66667               -0.3684878       -24.10221        -45.08388       -84.13546             -200               0             -200               0
1.67327               -0.3795862        -24.3537        -44.81552       -87.75588             -200               0             -200               0
1.67987               -0.3911764        -24.6096        -44.55163       -91.39365             -200               0             -200               0
1.68647               -0.4032965       -24.86989        -44.29218       -95.04551             -200               0             -200               0
1.69307               -0.4159752       -25.13457        -44.03712       -98.70831             -200               0             -200               0
1.69967               -0.4292488        -25.4036        -43.78634        -102.379             -200               0             -200               0
1.70627               -0.4431435       -25.67692        -43.53968       -106.0547             -200               0             -200               0
1.71287               -0.4576903       -25.95449        -43.29695       -109.7328             -200               0             -200               0
1.71947               -0.4729133       -26.23623        -43.05791       -113.4106             -200               0             -200               0
1.72607               -0.4888359       -26.52207        -42.82229        -117.086             -200               0             -200               0
1.73267               -0.5054795       -26.81194        -42.58978       -120.7567             -200               0             -200               0
1.73927                 -0.52286       -27.10577        -42.36004       -124.4211             -200               0             -200               0
1.74587               -0.5409946       -27.40349         -42.1327       -128.0775             -200               0             -200               0
1.75248               -0.5598961       -27.70506        -41.90739       -131.7246             -200               0             -200               0
1.75908               -0.5795762       -28.01044        -41.68369       -135.3615             -200               0             -200               0
1.76568               -0.6000422        -28.3196        -41.46117       -138.9875             -200               0             -200               0
1.77228               -0.6213042       -28.63254        -41.23941       -142.6023             -200               0             -200               0
1.77888               -0.6433703       -28.94928        -41.01797       -146.2058             -200               0             -200               0
1.78548               -0.6662472       -29.26985        -40.79641       -149.7983             -200               0             -200               0
1.79208               -0.6899437       -29.59433        -40.57429       -153.3807             -200               0             -200               0
1.79868               -0.7144679        -29.9228        -40.35119       -156.9537             -200               0             -200               0
1.80528               -0.7398322       -30.25538        -40.12672       -160.5189             -200               0             -200               0
1.81188               -0.7660503       -30.59222        -39.90051       -164.0779             -200               0             -200               0
1.81848               -0.7931385       -30.93347        -39.67219       -167.6326             -200               0             -200               0
1.82508               -0.8211193       -31.27932        -39.44148       -171.1853             -200               0             -200               0
1.83168               -0.8500166       -31.62998        -39.20809       -174.7384             -200               0             -200               0
1.83828               -0.8798619       -31.98565         -38.9718       -178.2947             -200               0             -200               0
1.84488               -0.9106912       -32.34658        -38.73246        178.1429             -200               0             -200               0
1.85149               -0.9425469       -32.71301        -38.48993        174.5716             -200               0             -200               0
1.85809               -0.9754774       -33.08517        -38.24416        170.9883             -200               0             -200               0
1.86469                -1.009538        -33.4633        -37.99513        167.3898             -200               0             -200               0
1.87129                -1.044792       -33.84764        -37.74289        163.7732             -200               0             -200               0
1.87789                -1.081306       -34.23841        -37.48754        160.1355             -200               0             -200               0
1.88449                -1.119159        -34.6358        -37.22923        156.4737             -200               0             -200               0
1.89109                -1.158429       -35.04001        -36.96815        152.7853             -200               0             -200               0
1.89769                -1.199208       -35.45118        -36.70452        149.0676             -200               0             -200               0
1.90429                -1.241589       -35.86944        -36.43864        145.3183             -200               0             -200               0
1.91089                -1.285673       -36.29487        -36.17079        141.5353             -200               0             -200               0
1.91749                -1.331565       -36.72752        -35.90132        137.7169             -200               0             -200               0
1.92409                -1.379375        -37.1674        -35.63056        133.8613             -200               0             -200               0
1.93069                -1.429217       -37.61446        -35.35889        129.9674             -200               0             -200               0
1.93729                -1.481208       -38.06862        -35.08667        126.0341             -200               0             -200               0
1.94389                -1.535468       -38.52974        -34.81429        122.0605             -200               0             -200               0
1.9505                  -1.59212       -38.99765        -34.54212        118.0462             -200               0             -200               0
1.9571                 -1.651286        -39.4721        -34.27054        113.9908             -200               0             -200               0
1.9637                 -1.713092       -39.95281        -33.99991        109.8941             -200               0             -200               0
1.9703                 -1.777663       -40.43945         -33.7306        105.7564             -200               0             -200               0
1.9769                 -1.845122       -40.93165        -33.46294        101.5779             -200               0             -200               0
1.9835                 -1.915596       -41.42899        -33.19727         97.3591             -200               0             -200               0
1.9901                 -1.989207         -41.931         -32.9339         93.1005             -200               0             -200               0
1.9967                 -2.066079       -42.43717        -32.67312        88.80287             -200               0             -200               0
2.0033                 -2.146333       -42.94697        -32.41522        84.46704             -200               0             -200               0
2.0099                 -2.230088       -43.45982        -32.16046        80.09394             -200               0             -200               0
2.0165                 -2.317465        -43.9751        -31.90907        75.68457             -200               0             -200               0
2.0231                 -2.408579        -44.4922        -31.66129        71.23998             -200               0             -200               0
2.0297                 -2.503551       -45.01042        -31.41731        66.76131             -200               0             -200               0
2.0363                 -2.602494       -45.52909        -31.17735         62.2497             -200               0             -200               0
2.0429                 -2.705526       -46.04749        -30.94156        57.70633             -200               0             -200               0
2.0495                 -2.812766       -46.56489         -30.7101        53.13241             -200               0             -200               0
2.05611                 -2.92433       -47.08051        -30.48313        48.52915             -200               0             -200               0
2.06271                 -3.04034       -47.59359        -30.26078        43.89777             -200               0             -200               0
2.06931                -3.160919       -48.10332        -30.04315        39.23948             -200               0             -200               0
2.07591                -3.286193       -48.60888        -29.83037        34.55549             -200               0             -200               0
2.08251                -3.416297        -49.1094        -29.62251          29.847             -200               0             -200               0
2.08911                -3.551367       -49.60399        -29.41968        25.11519             -200               0             -200               0
2.09571                -3.691547       -50.09174        -29.22193        20.36123             -200               0             -200               0
2.10231                -3.836993       -50.57167        -29.02934        15.58627             -200               0             -200               0
2.10891                -3.987866       -51.04276        -28.84197        10.79144             -200               0             -200               0
2.11551                -4.144338       -51.50391        -28.65987        5.977847             -200               0             -200               0
2.12211                -4.306596       -51.95397        -28.48307         1.14657             -200               0             -200               0
2.12871                -4.474836        -52.3917        -28.31162        -3.70133             -200               0             -200               0
2.13531                -4.649271       -52.81573        -28.14555       -8.564815             -200               0             -200               0
2.14191                -4.830127       -53.22459        -27.98488       -13.44287             -200               0             -200               0
2.14851                -5.017649       -53.61664        -27.82964       -18.33449             -200               0             -200               0
2.15512                -5.212096       -53.99011        -27.67984       -23.23873             -200               0             -200               0
2.16172                -5.413745       -54.34299         -27.5355       -28.15462             -200               0             -200               0
2.16832                -5.622895       -54.67306        -27.39663       -33.08124             -200               0             -200               0
2.17492                -5.839857       -54.97784        -27.26323       -38.01768             -200               0             -200               0
2.18152                -6.064967       -55.25454        -27.13531       -42.96305             -200               0             -200               0
2.18812                -6.298574       -55.50001        -27.01286       -47.91649             -200               0             -200               0
2.19472                -6.541047        -55.7107         -26.8959       -52.87713             -200               0             -200               0
2.20132                -6.792767       -55.88261        -26.78441       -57.84414             -200               0             -200               0
2.20792                -7.054129       -56.01118        -26.67839        -62.8167             -200               0             -200               0
2.21452                -7.325537       -56.09125        -26.57783         -67.794             -200               0             -200               0
2.22112                -7.607393       -56.11697        -26.48272       -72.77524             -200               0             -200               0
2.22772                -7.900098       -56.08168        -26.39306       -77.75964             -200               0             -200               0
2.23432                -8.204038       -55.97781        -26.30883       -82.74642             -200               0             -200               0
2.24092                -8.519564       -55.79674        -26.23002       -87.73482             -200               0             -200               0
2.24752                 -8.84698       -55.52866        -26.15661       -92.72408             -200               0             -200               0
2.25413                -9.186516       -55.16241        -26.08859       -97.71346             -200               0             -200               0
2.26073                -9.538289       -54.68532        -26.02594       -102.7022             -200               0             -200               0
2.26733                -9.902268       -54.08303        -25.96864       -107.6896             -200               0             -200               0
2.27393                 -10.2782       -53.33928        -25.91668       -112.6749             -200               0             -200               0
2.28053                -10.66556       -52.43584        -25.87003       -117.6573             -200               0             -200               0
2.28713                -11.06342       -51.35236        -25.82867       -122.6362             -200               0             -200               0
2.29373                -11.47034       -50.06643        -25.79258       -127.6109             -200               0             -200               0