! TOUCHSTONE file generated by CST MICROWAVE STUDIO
! Date and time: Sat Mar  8 13:54:46 2025
! Project name: non_fractured.cst
! Parameters = {B=2.5; D=160; F=15; Feed=2.85625; L=100; M=10; R=0.384908; S=1.5; Theta=0; length=57.125; wave=114.25}
! Header version: 2024
! Port assignment regex: !\s*Touchstone port\s*([0-9]+)\s*=\s*(CST MWS port|CST DES external port|CST DES block port)\s*(.+)\s* \(\"(.*)\"\)(\s*mode\s*([0-9]+))?.*
! Touchstone port assignment:
! Touchstone port 1 = CST MWS port 1 ("")
! Touchstone port 2 = CST MWS port 2 ("")
# GHz S DB R 50
1                    -0.01724543       -9.751863        -70.11573       -131.1331             -200               0             -200               0
1.00662              -0.01807339       -9.841926        -69.68671       -134.6846             -200               0             -200               0
1.01325              -0.01897499       -9.932316        -69.28888       -138.3154             -200               0             -200               0
1.01987               -0.0199435       -10.02298        -68.92122       -142.0019             -200               0             -200               0
1.02649              -0.02096992       -10.11389        -68.58265       -145.7232             -200               0             -200               0
1.03311              -0.02204548         -10.205        -68.27208       -149.4605             -200               0             -200               0
1.03974              -0.02315896        -10.2963        -67.98844       -153.1965             -200               0             -200               0
1.04636              -0.02429936       -10.38778         -67.7306       -156.9152             -200               0             -200               0
1.05298              -0.02545476       -10.47945        -67.49746       -160.6015             -200               0             -200               0
1.0596               -0.02661486       -10.57135        -67.28786       -164.2409             -200               0             -200               0
1.06623              -0.02776796       -10.66349        -67.10059       -167.8191             -200               0             -200               0
1.07285              -0.02890506       -10.75593        -66.93436       -171.3223             -200               0             -200               0
1.07947              -0.03001574       -10.84874        -66.78775       -174.7366             -200               0             -200               0
1.08609              -0.03109444       -10.94197        -66.65922       -178.0484             -200               0             -200               0
1.09272              -0.03213428       -11.03572        -66.54698        178.7558             -200               0             -200               0
1.09934              -0.03313067       -11.13006        -66.44904        175.6895             -200               0             -200               0
1.10596              -0.03408295       -11.22509         -66.3631        172.7655             -200               0             -200               0
1.11258              -0.03499051        -11.3209        -66.28652        169.9958             -200               0             -200               0
1.11921              -0.03585615       -11.41759         -66.2163        167.3914             -200               0             -200               0
1.12583              -0.03668379       -11.51524        -66.14903         164.961             -200               0             -200               0
1.13245              -0.03748054       -11.61395        -66.08089         162.711             -200               0             -200               0
1.13907              -0.03825427       -11.71379         -66.0077        160.6441             -200               0             -200               0
1.1457               -0.03901453       -11.81484        -65.92497        158.7586             -200               0             -200               0
1.15232              -0.03977333       -11.91715        -65.82804        157.0475             -200               0             -200               0
1.15894              -0.04054296       -12.02077        -65.71228        155.4974             -200               0             -200               0
1.16556              -0.04133778       -12.12574        -65.57329        154.0886             -200               0             -200               0
1.17219              -0.04216985       -12.23208        -65.40725        152.7951             -200               0             -200               0
1.17881              -0.04305492       -12.33979         -65.2111        151.5854             -200               0             -200               0
1.18543              -0.04400598       -12.44888        -64.98284        150.4237             -200               0             -200               0
1.19205               -0.0450355       -12.55931        -64.72171        149.2721             -200               0             -200               0
1.19868              -0.04615694       -12.67107        -64.42816         148.093             -200               0             -200               0
1.2053               -0.04737998       -12.78409        -64.10386        146.8508             -200               0             -200               0
1.21192              -0.04871408       -12.89832        -63.75149        145.5145             -200               0             -200               0
1.21854               -0.0501661       -13.01371         -63.3745        144.0585             -200               0             -200               0
1.22517              -0.05174234       -13.13018        -62.97682        142.4635             -200               0             -200               0
1.23179              -0.05344579       -13.24767        -62.56261        140.7167             -200               0             -200               0
1.23841              -0.05527686       -13.36609        -62.13599        138.8112             -200               0             -200               0
1.24503              -0.05723441       -13.48539        -61.70088        136.7452             -200               0             -200               0
1.25166              -0.05931457       -13.60547        -61.26087        134.5212             -200               0             -200               0
1.25828              -0.06151213        -13.7263        -60.81913        132.1451             -200               0             -200               0
1.2649               -0.06381955       -13.84782        -60.37842        129.6249             -200               0             -200               0
1.27152              -0.06622792       -13.96997        -59.94103        126.9704             -200               0             -200               0
1.27815              -0.06872551       -14.09275        -59.50888        124.1923             -200               0             -200               0
1.28477              -0.07130195       -14.21613        -59.08348        121.3019             -200               0             -200               0
1.29139              -0.07394328        -14.3401        -58.66603        118.3102             -200               0             -200               0
1.29801              -0.07663834        -14.4647        -58.25743        115.2284             -200               0             -200               0
1.30464              -0.07937394       -14.58996        -57.85834        112.0672             -200               0             -200               0
1.31126               -0.0821375       -14.71591         -57.4692        108.8367             -200               0             -200               0
1.31788              -0.08491874       -14.84264        -57.09028        105.5466             -200               0             -200               0
1.3245               -0.08770688       -14.97021        -56.72168        102.2059             -200               0             -200               0
1.33113               -0.0904934       -15.09872         -56.3634        98.82298             -200               0             -200               0
1.33775               -0.0932727       -15.22828         -56.0153        95.40575             -200               0             -200               0
1.34437              -0.09604016         -15.359        -55.67717        91.96143             -200               0             -200               0
1.35099              -0.09879389         -15.491        -55.34874        88.49667             -200               0             -200               0
1.35762               -0.1015355       -15.62441        -55.02964         85.0176             -200               0             -200               0
1.36424               -0.1042665       -15.75934        -54.71946        81.52983             -200               0             -200               0
1.37086               -0.1069945       -15.89593        -54.41774        78.03842             -200               0             -200               0
1.37748               -0.1097276       -16.03429        -54.12399        74.54798             -200               0             -200               0
1.38411               -0.1124758       -16.17454        -53.83766         71.0626             -200               0             -200               0
1.39073               -0.1152523       -16.31678         -53.5582        67.58593             -200               0             -200               0
1.39735               -0.1180732       -16.46111        -53.28501        64.12111             -200               0             -200               0
1.40397               -0.1209543        -16.6076        -53.01748        60.67085             -200               0             -200               0
1.4106                -0.1239132       -16.75633        -52.75498        57.23737             -200               0             -200               0
1.41722               -0.1269679       -16.90732        -52.49687        53.82242             -200               0             -200               0
1.42384               -0.1301389       -17.06063        -52.24251        50.42732             -200               0             -200               0
1.43046               -0.1334441       -17.21627        -51.99126        47.05288             -200               0             -200               0
1.43709               -0.1369018       -17.37423        -51.74247        43.69947             -200               0             -200               0
1.44371               -0.1405301        -17.5345        -51.49553        40.36699             -200               0             -200               0
1.45033               -0.1443458       -17.69705        -51.24982        37.05491             -200               0             -200               0
1.45695               -0.1483623       -17.86184        -51.00478        33.76227             -200               0             -200               0
1.46358               -0.1525938       -18.02881        -50.75986        30.48768             -200               0             -200               0
1.4702                -0.1570497       -18.19791        -50.51455        27.22939             -200               0             -200               0
1.47682               -0.1617388       -18.36908        -50.26841        23.98529             -200               0             -200               0
1.48344               -0.1666661       -18.54223        -50.02102          20.753             -200               0             -200               0
1.49007               -0.1718358       -18.71731        -49.77205        17.52986             -200               0             -200               0
1.49669               -0.1772469       -18.89426         -49.5212          14.313             -200               0             -200               0
1.50331               -0.1828989       -19.07301        -49.26828        11.09944             -200               0             -200               0
1.50993               -0.1887872       -19.25353        -49.01311        7.886109             -200               0             -200               0
1.51656               -0.1949044       -19.43577        -48.75563        4.669903             -200               0             -200               0
1.52318               -0.2012449       -19.61973        -48.49581        1.447762             -200               0             -200               0
1.5298                -0.2077979        -19.8054        -48.23368       -1.783269             -200               0             -200               0
1.53642               -0.2145544        -19.9928        -47.96935       -5.026007             -200               0             -200               0
1.54305               -0.2215035       -20.18197        -47.70298       -8.283066             -200               0             -200               0
1.54967               -0.2286358       -20.37296        -47.43475       -11.55683             -200               0             -200               0
1.55629               -0.2359416       -20.56585        -47.16491       -14.84941             -200               0             -200               0
1.56291               -0.2434111       -20.76075        -46.89373       -18.16262             -200               0             -200               0
1.56954               -0.2510382       -20.95776         -46.6215         -21.498             -200               0             -200               0
1.57616                -0.258819       -21.15702        -46.34854       -24.85674             -200               0             -200               0
1.58278               -0.2667503       -21.35869        -46.07517       -28.23973             -200               0             -200               0
1.5894                 -0.274833       -21.56292        -45.80172       -31.64754             -200               0             -200               0
1.59603               -0.2830698        -21.7699        -45.52851       -35.08046             -200               0             -200               0
1.60265               -0.2914703       -21.97979        -45.25588       -38.53849             -200               0             -200               0
1.60927               -0.3000436        -22.1928        -44.98412       -42.02135             -200               0             -200               0
1.61589               -0.3088041       -22.40909        -44.71353       -45.52854             -200               0             -200               0
1.62252                 -0.31777       -22.62886        -44.44437       -49.05936             -200               0             -200               0
1.62914               -0.3269642       -22.85228         -44.1769       -52.61288             -200               0             -200               0
1.63576               -0.3364104        -23.0795        -43.91133       -56.18803             -200               0             -200               0
1.64238               -0.3461371       -23.31068        -43.64787       -59.78359             -200               0             -200               0
1.64901               -0.3561739       -23.54597        -43.38667       -63.39824             -200               0             -200               0
1.65563               -0.3665544       -23.78546        -43.12789       -67.03057             -200               0             -200               0
1.66225                -0.377314       -24.02926        -42.87163       -70.67908             -200               0             -200               0
1.66887               -0.3884888       -24.27745        -42.61796       -74.34225             -200               0             -200               0
1.6755                -0.4001159       -24.53008        -42.36695       -78.01854             -200               0             -200               0
1.68212               -0.4122306       -24.78717        -42.11861        -81.7064             -200               0             -200               0
1.68874               -0.4248716       -25.04875        -41.87295       -85.40428             -200               0             -200               0
1.69536               -0.4380732       -25.31478        -41.62992        -89.1107             -200               0             -200               0
1.70199               -0.4518709       -25.58525        -41.38949       -92.82422             -200               0             -200               0
1.70861                -0.466297       -25.86011        -41.15155       -96.54344             -200               0             -200               0
1.71523                -0.481381        -26.1393        -40.91601       -100.2671             -200               0             -200               0
1.72185               -0.4971522       -26.42275        -40.68275       -103.9939             -200               0             -200               0
1.72848               -0.5136342       -26.71037        -40.45162       -107.7229             -200               0             -200               0
1.7351                  -0.53085        -27.0021        -40.22246       -111.4531             -200               0             -200               0
1.74172               -0.5488198       -27.29784        -39.99509       -115.1836             -200               0             -200               0
1.74834               -0.5675577       -27.59754        -39.76932       -118.9137             -200               0             -200               0
1.75497               -0.5870782       -27.90112        -39.54495       -122.6429             -200               0             -200               0
1.76159               -0.6073921       -28.20852        -39.32176       -126.3708             -200               0             -200               0
1.76821               -0.6285082       -28.51974        -39.09954       -130.0973             -200               0             -200               0
1.77483               -0.6504349       -28.83474        -38.87806       -133.8221             -200               0             -200               0
1.78146               -0.6731774       -29.15354        -38.65711       -137.5456             -200               0             -200               0
1.78808                -0.696742       -29.47618        -38.43646       -141.2678             -200               0             -200               0
1.7947                -0.7211341       -29.80272         -38.2159       -144.9894             -200               0             -200               0
1.80132                -0.746361       -30.13327        -37.99522        -148.711             -200               0             -200               0
1.80795               -0.7724318       -30.46794        -37.77421       -152.4333             -200               0             -200               0
1.81457               -0.7993585       -30.80689        -37.55271       -156.1572             -200               0             -200               0
1.82119               -0.8271548       -31.15031        -37.33053        -159.884             -200               0             -200               0
1.82781               -0.8558409       -31.49839        -37.10753       -163.6147             -200               0             -200               0
1.83444               -0.8854397       -31.85138        -36.88358       -167.3508             -200               0             -200               0
1.84106                -0.915983       -32.20952        -36.65857       -171.0936             -200               0             -200               0
1.84768               -0.9475055       -32.57309        -36.43242       -174.8446             -200               0             -200               0
1.8543                 -0.980052       -32.94235        -36.20507       -178.6055             -200               0             -200               0
1.86093                -1.013671       -33.31759        -35.97648        177.6221             -200               0             -200               0
1.86755                -1.048422        -33.6991        -35.74666        173.8367             -200               0             -200               0
1.87417                -1.084371       -34.08716        -35.51561        170.0365             -200               0             -200               0
1.88079                -1.121592       -34.48201        -35.28339          166.22             -200               0             -200               0
1.88742                -1.160166       -34.88392        -35.05007        162.3855             -200               0             -200               0
1.89404                -1.200186        -35.2931        -34.81574        158.5316             -200               0             -200               0
1.90066                -1.241746       -35.70973        -34.58051        154.6567             -200               0             -200               0
1.90728                -1.284953       -36.13397        -34.34453        150.7596             -200               0             -200               0
1.91391                -1.329918       -36.56593        -34.10796        146.8388             -200               0             -200               0
1.92053                -1.376757       -37.00566        -33.87096        142.8933             -200               0             -200               0
1.92715                -1.425595       -37.45318        -33.63371        138.9221             -200               0             -200               0
1.93377                -1.476557       -37.90846        -33.39643         134.924             -200               0             -200               0
1.9404                 -1.529777       -38.37137        -33.15932        130.8985             -200               0             -200               0
1.94702                -1.585387       -38.84176        -32.92259        126.8447             -200               0             -200               0
1.95364                -1.643524       -39.31942        -32.68647        122.7622             -200               0             -200               0
1.96026                -1.704328       -39.80406        -32.45117        118.6505             -200               0             -200               0
1.96689                -1.767933       -40.29533        -32.21693        114.5094             -200               0             -200               0
1.97351                -1.834482       -40.79283        -31.98396        110.3385             -200               0             -200               0
1.98013                -1.904109        -41.2961         -31.7525         106.138             -200               0             -200               0
1.98675                -1.976953       -41.80462        -31.52276        101.9077             -200               0             -200               0
1.99338                -2.053145       -42.31782        -31.29495        97.64795             -200               0             -200               0
2                      -2.132817       -42.83509        -31.06928        93.35885             -200               0             -200               0
2.00662                -2.216099       -43.35575        -30.84596        89.04075             -200               0             -200               0
2.01325                -2.303112        -43.8791        -30.62517        84.69405             -200               0             -200               0
2.01987                -2.393982       -44.40438         -30.4071         80.3192             -200               0             -200               0
2.02649                -2.488824       -44.93082        -30.19193        75.91674             -200               0             -200               0
2.03311                -2.587754       -45.45761        -29.97983        71.48725             -200               0             -200               0
2.03974                -2.690887       -45.98391        -29.77095        67.03135             -200               0             -200               0
2.04636                -2.798328       -46.50887        -29.56545        62.54971             -200               0             -200               0
2.05298                -2.910188       -47.03161        -29.36347        58.04304             -200               0             -200               0
2.0596                 -3.026573       -47.55122        -29.16515        53.51207             -200               0             -200               0
2.06623                -3.147588       -48.06681         -28.9706        48.95757             -200               0             -200               0
2.07285                -3.273339       -48.57747        -28.77995        44.38031             -200               0             -200               0
2.07947                -3.403935       -49.08226         -28.5933         39.7811             -200               0             -200               0
2.08609                -3.539484       -49.58024        -28.41075        35.16073             -200               0             -200               0
2.09272                -3.680105       -50.07046         -28.2324        30.52002             -200               0             -200               0
2.09934                -3.825914       -50.55196        -28.05833        25.85981             -200               0             -200               0
2.10596                -3.977041       -51.02374        -27.88862         21.1809             -200               0             -200               0
2.11258                -4.133621       -51.48478        -27.72335        16.48412             -200               0             -200               0
2.11921                  -4.2958       -51.93403        -27.56258        11.77031             -200               0             -200               0
2.12583                -4.463738        -52.3704        -27.40637        7.040266             -200               0             -200               0
2.13245                -4.637605       -52.79272        -27.25478        2.294818             -200               0             -200               0
2.13907                -4.817593       -53.19977        -27.10786        -2.46523             -200               0             -200               0
2.1457                 -5.003907       -53.59023        -26.96566       -7.239074             -200               0             -200               0
2.15232                -5.196774       -53.96266        -26.82822       -12.02592             -200               0             -200               0
2.15894                 -5.39644       -54.31548        -26.69558       -16.82498             -200               0             -200               0
2.16556                -5.603177       -54.64696        -26.56777       -21.63547             -200               0             -200               0
2.17219                -5.817279       -54.95514        -26.44481       -26.45664             -200               0             -200               0
2.17881                -6.039069       -55.23786        -26.32675        -31.2877             -200               0             -200               0
2.18543                -6.268894       -55.49263         -26.2136       -36.12792             -200               0             -200               0
2.19205                 -6.50713       -55.71667        -26.10539       -40.97654             -200               0             -200               0
2.19868                -6.754182       -55.90676        -26.00213       -45.83284             -200               0             -200               0
2.2053                 -7.010482       -56.05926        -25.90384       -50.69608             -200               0             -200               0
2.21192                -7.276489       -56.16996        -25.81054       -55.56554             -200               0             -200               0
2.21854                -7.552688       -56.23405        -25.72223       -60.44051             -200               0             -200               0
2.22517                -7.839582       -56.24596        -25.63894       -65.32027             -200               0             -200               0
2.23179                -8.137692       -56.19928        -25.56065       -70.20414             -200               0             -200               0
2.23841                -8.447545       -56.08663        -25.48739       -75.09142             -200               0             -200               0
2.24503                -8.769663       -55.89943        -25.41916       -79.98142             -200               0             -200               0
2.25166                -9.104548       -55.62781        -25.35596       -84.87344             -200               0             -200               0
2.25828                -9.452657       -55.26032        -25.29779       -89.76682             -200               0             -200               0
2.2649                 -9.814372       -54.78373        -25.24465       -94.66086             -200               0             -200               0
2.27152                -10.18995       -54.18279        -25.19655        -99.5549             -200               0             -200               0
2.27815                -10.57948       -53.43986        -25.15347       -104.4483             -200               0             -200               0
2.28477                -10.98276       -52.53473        -25.11542       -109.3403             -200               0             -200               0
2.29139                -11.39924       -51.44425         -25.0824       -114.2302             -200               0             -200               0
2.29801                -11.82785       -50.14226        -25.05439       -119.1175             -200               0             -200               0