! TOUCHSTONE file generated by CST MICROWAVE STUDIO
! Date and time: Sat Mar  8 13:54:43 2025
! Project name: non_fractured.cst
! Parameters = {B=2.5; D=160; F=10; Feed=2.85625; L=100; M=10; R=0.384908; S=2.5; Theta=0; length=57.125; wave=114.25}
! Header version: 2024
! Port assignment regex: !\s*Touchstone port\s*([0-9]+)\s*=\s*(CST MWS port|CST DES external port|CST DES block port)\s*(.+)\s* \(\"(.*)\"\)(\s*mode\s*([0-9]+))?.*
! Touchstone port assignment:
! Touchstone port 1 = CST MWS port 1 ("")
! Touchstone port 2 = CST MWS port 2 ("")
# GHz S DB R 50
1                    -0.01815617       -9.751717         -70.3227       -122.6608             -200               0             -200               0
1.00658               -0.0188674       -9.840407        -69.75921       -126.6469             -200               0             -200               0
1.01316              -0.01963525       -9.929549        -69.24296       -130.7505             -200               0             -200               0
1.01974              -0.02045561       -10.01911        -68.77083       -134.9399             -200               0             -200               0
1.02632              -0.02132588       -10.10907        -68.34009       -139.1892             -200               0             -200               0
1.03289              -0.02224017       -10.19939        -67.94833       -143.4766             -200               0             -200               0
1.03947              -0.02319134       -10.29006        -67.59343       -147.7833             -200               0             -200               0
1.04605              -0.02417465       -10.38108        -67.27357       -152.0927             -200               0             -200               0
1.05263              -0.02518099       -10.47244        -66.98711       -156.3898             -200               0             -200               0
1.05921              -0.02620457       -10.56415        -66.73263       -160.6605             -200               0             -200               0
1.06579              -0.02723835       -10.65623        -66.50884       -164.8913             -200               0             -200               0
1.07237              -0.02827501       -10.74871        -66.31459        -169.069             -200               0             -200               0
1.07895              -0.02930796       -10.84162        -66.14878       -173.1806             -200               0             -200               0
1.08553              -0.03033198         -10.935        -66.01037       -177.2122             -200               0             -200               0
1.09211              -0.03134156        -11.0289        -65.89831        178.8499             -200               0             -200               0
1.09868               -0.0323336       -11.12338         -65.8115        175.0208             -200               0             -200               0
1.10526              -0.03330528        -11.2185        -65.74874        171.3161             -200               0             -200               0
1.11184              -0.03425531       -11.31431        -65.70866        167.7526             -200               0             -200               0
1.11842              -0.03518431        -11.4109        -65.68964        164.3481             -200               0             -200               0
1.125                -0.03609227       -11.50832        -65.68972        161.1216             -200               0             -200               0
1.13158              -0.03698341       -11.60663        -65.70647        158.0928             -200               0             -200               0
1.13816              -0.03786146       -11.70591        -65.73694         155.282             -200               0             -200               0
1.14474              -0.03873173       -11.80621        -65.77745        152.7094             -200               0             -200               0
1.15132              -0.03960076       -11.90759        -65.82348        150.3939             -200               0             -200               0
1.15789              -0.04047625       -12.01008        -65.86961        148.3519             -200               0             -200               0
1.16447              -0.04136676       -12.11374        -65.90942        146.5949             -200               0             -200               0
1.17105              -0.04228197       -12.21859        -65.93556        145.1276             -200               0             -200               0
1.17763              -0.04323032       -12.32465        -65.93989        143.9445             -200               0             -200               0
1.18421              -0.04422268       -12.43195        -65.91393        143.0279             -200               0             -200               0
1.19079              -0.04526702       -12.54048        -65.84935        142.3454             -200               0             -200               0
1.19737              -0.04637379       -12.65024         -65.7388        141.8499             -200               0             -200               0
1.20395              -0.04755257       -12.76122        -65.57662         141.481             -200               0             -200               0
1.21053              -0.04880963       -12.87339        -65.35962         141.169             -200               0             -200               0
1.21711              -0.05015318       -12.98673        -65.08743        140.8406             -200               0             -200               0
1.22368               -0.0515893       -13.10121        -64.76257        140.4254             -200               0             -200               0
1.23026              -0.05312179       -13.21678        -64.39002        139.8618             -200               0             -200               0
1.23684              -0.05475572       -13.33341        -63.97659        139.1014             -200               0             -200               0
1.24342              -0.05649088       -13.45105        -63.53008        138.1104             -200               0             -200               0
1.25                 -0.05833011       -13.56966        -63.05853        136.8696             -200               0             -200               0
1.25658              -0.06027019        -13.6892        -62.56964        135.3726             -200               0             -200               0
1.26316              -0.06230977       -13.80962        -62.07035        133.6229             -200               0             -200               0
1.26974              -0.06444511       -13.93091        -61.56665        131.6316             -200               0             -200               0
1.27632              -0.06667175       -14.05303        -61.06353        129.4145             -200               0             -200               0
1.28289              -0.06898298       -14.17597        -60.56498        126.9902             -200               0             -200               0
1.28947              -0.07137158       -14.29971        -60.07413        124.3786             -200               0             -200               0
1.29605              -0.07383107       -14.42426        -59.59336        121.5997             -200               0             -200               0
1.30263              -0.07635341       -14.54963        -59.12441        118.6729             -200               0             -200               0
1.30921               -0.0789306       -14.67585        -58.66851        115.6167             -200               0             -200               0
1.31579              -0.08155544       -14.80294        -58.22648        112.4482             -200               0             -200               0
1.32237              -0.08421972       -14.93095        -57.79881        109.1834             -200               0             -200               0
1.32895              -0.08691867       -15.05994        -57.38574        105.8368             -200               0             -200               0
1.33553              -0.08964307       -15.18997        -56.98727        102.4218             -200               0             -200               0
1.34211              -0.09239196       -15.32111        -56.60329        98.95033             -200               0             -200               0
1.34868               -0.0951617       -15.45345        -56.23352        95.43353             -200               0             -200               0
1.35526              -0.09795043       -15.58708        -55.87763        91.88139             -200               0             -200               0
1.36184               -0.1007569       -15.72208        -55.53516        88.30302             -200               0             -200               0
1.36842               -0.1035857       -15.85855        -55.20562        84.70673             -200               0             -200               0
1.375                 -0.1064374       -15.99659        -54.88846        81.10006             -200               0             -200               0
1.38158               -0.1093206       -16.13628        -54.58307         77.4899             -200               0             -200               0
1.38816               -0.1122403       -16.27772        -54.28882         73.8825             -200               0             -200               0
1.39474               -0.1152072       -16.42101        -54.00503        70.28352             -200               0             -200               0
1.40132               -0.1182309        -16.5662        -53.73101        66.69809             -200               0             -200               0
1.40789               -0.1213228       -16.71339        -53.46602        63.13079             -200               0             -200               0
1.41447               -0.1244976       -16.86263        -53.20929        59.58568             -200               0             -200               0
1.42105               -0.1277671       -17.01397        -52.96006        56.06635             -200               0             -200               0
1.42763               -0.1311469       -17.16746         -52.7175        52.57582             -200               0             -200               0
1.43421               -0.1346513       -17.32313        -52.48081        49.11664             -200               0             -200               0
1.44079               -0.1382965         -17.481        -52.24913        45.69079             -200               0             -200               0
1.44737               -0.1420947       -17.64108        -52.02163        42.29972             -200               0             -200               0
1.45395               -0.1460623       -17.80337        -51.79744        38.94434             -200               0             -200               0
1.46053               -0.1502116       -17.96785        -51.57571        35.62496             -200               0             -200               0
1.46711               -0.1545558       -18.13451        -51.35562        32.34132             -200               0             -200               0
1.47368               -0.1591035       -18.30332        -51.13632        29.09256             -200               0             -200               0
1.48026               -0.1638671       -18.47424        -50.91703        25.87727             -200               0             -200               0
1.48684                -0.168853       -18.64724          -50.697        22.69344             -200               0             -200               0
1.49342               -0.1740684       -18.82227        -50.47552        19.53854             -200               0             -200               0
1.5                    -0.179517       -18.99931        -50.25194        16.40952             -200               0             -200               0
1.50658               -0.1852023       -19.17831         -50.0257        13.30289             -200               0             -200               0
1.51316               -0.1911254       -19.35924         -49.7963        10.21476             -200               0             -200               0
1.51974                -0.197286       -19.54208        -49.56333        7.140934             -200               0             -200               0
1.52632               -0.2036833        -19.7268        -49.32648        4.076977             -200               0             -200               0
1.53289                -0.210312        -19.9134        -49.08554        1.018315             -200               0             -200               0
1.53947               -0.2171708       -20.10188        -48.84038       -2.039671             -200               0             -200               0
1.54605               -0.2242524       -20.29226        -48.59098       -5.101554             -200               0             -200               0
1.55263                -0.231555       -20.48457        -48.33741       -8.171767             -200               0             -200               0
1.55921               -0.2390717       -20.67885        -48.07982       -11.25452             -200               0             -200               0
1.56579               -0.2467988       -20.87515        -47.81846       -14.35373             -200               0             -200               0
1.57237               -0.2547322       -21.07356        -47.55362       -17.47294             -200               0             -200               0
1.57895               -0.2628693       -21.27415        -47.28567       -20.61529             -200               0             -200               0
1.58553               -0.2712079       -21.47703        -47.01501        -23.7835             -200               0             -200               0
1.59211               -0.2797481       -21.68231        -46.74208       -26.97978             -200               0             -200               0
1.59868               -0.2884927        -21.8901        -46.46736       -30.20591             -200               0             -200               0
1.60526               -0.2974454       -22.10053        -46.19132       -33.46317             -200               0             -200               0
1.61184                -0.306612       -22.31375        -45.91444       -36.75241             -200               0             -200               0
1.61842               -0.3160029       -22.52989        -45.63721       -40.07402             -200               0             -200               0
1.625                 -0.3256291        -22.7491        -45.36006       -43.42801             -200               0             -200               0
1.63158               -0.3355061       -22.97151        -45.08346       -46.81404             -200               0             -200               0
1.63816               -0.3456488       -23.19727        -44.80781        -50.2314             -200               0             -200               0
1.64474               -0.3560771       -23.42651        -44.53349       -53.67914             -200               0             -200               0
1.65132               -0.3668143       -23.65935        -44.26085       -57.15601             -200               0             -200               0
1.65789               -0.3778829       -23.89592         -43.9902       -60.66059             -200               0             -200               0
1.66447               -0.3893095       -24.13632        -43.72182       -64.19127             -200               0             -200               0
1.67105               -0.4011216       -24.38063        -43.45594       -67.74632             -200               0             -200               0
1.67763               -0.4133475       -24.62895        -43.19275       -71.32388             -200               0             -200               0
1.68421               -0.4260181       -24.88134        -42.93241       -74.92206             -200               0             -200               0
1.69079               -0.4391635       -25.13784        -42.67504       -78.53888             -200               0             -200               0
1.69737               -0.4528144        -25.3985        -42.42072       -82.17238             -200               0             -200               0
1.70395               -0.4670011       -25.66332        -42.16951       -85.82061             -200               0             -200               0
1.71053                -0.481754       -25.93233         -41.9214       -89.48162             -200               0             -200               0
1.71711               -0.4971016        -26.2055        -41.67638       -93.15355             -200               0             -200               0
1.72368               -0.5130742       -26.48284        -41.43439       -96.83458             -200               0             -200               0
1.73026               -0.5296974        -26.7643        -41.19537        -100.523             -200               0             -200               0
1.73684               -0.5469975       -27.04986         -40.9592       -104.2172             -200               0             -200               0
1.74342               -0.5649966       -27.33948        -40.72575       -107.9156             -200               0             -200               0
1.75                  -0.5837181       -27.63313        -40.49487       -111.6169             -200               0             -200               0
1.75658               -0.6031813       -27.93077        -40.26637       -115.3199             -200               0             -200               0
1.76316               -0.6234047       -28.23236        -40.04007       -119.0234             -200               0             -200               0
1.76974               -0.6444057       -28.53789        -39.81577       -122.7266             -200               0             -200               0
1.77632               -0.6661984       -28.84734        -39.59323       -126.4287             -200               0             -200               0
1.78289               -0.6887989        -29.1607        -39.37222       -130.1292             -200               0             -200               0
1.78947               -0.7122196       -29.47799        -39.15252       -133.8276             -200               0             -200               0
1.79605               -0.7364741       -29.79925        -38.93387       -137.5238             -200               0             -200               0
1.80263                -0.761576       -30.12451        -38.71602       -141.2178             -200               0             -200               0
1.80921               -0.7875388       -30.45386        -38.49874       -144.9097             -200               0             -200               0
1.81579               -0.8143783       -30.78737        -38.28179          -148.6             -200               0             -200               0
1.82237               -0.8421103       -31.12515        -38.06493       -152.2891             -200               0             -200               0
1.82895               -0.8707541       -31.46734        -37.84794       -155.9778             -200               0             -200               0
1.83553               -0.9003324       -31.81409        -37.63061       -159.6671             -200               0             -200               0
1.84211               -0.9308714       -32.16556        -37.41276       -163.3579             -200               0             -200               0
1.84868               -0.9623998       -32.52195        -37.19422       -167.0516             -200               0             -200               0
1.85526                -0.994952       -32.88344        -36.97482       -170.7494             -200               0             -200               0
1.86184                -1.028567       -33.25025        -36.75445       -174.4527             -200               0             -200               0
1.86842                -1.063291       -33.62259        -36.53301       -178.1632             -200               0             -200               0
1.875                  -1.099173       -34.00068        -36.31042        178.1175             -200               0             -200               0
1.88158                -1.136271       -34.38475        -36.08663        174.3879             -200               0             -200               0
1.88816                -1.174648         -34.775        -35.86162        170.6461             -200               0             -200               0
1.89474                -1.214375       -35.17165        -35.63541        166.8906             -200               0             -200               0
1.90132                -1.255527       -35.57488        -35.40803        163.1195             -200               0             -200               0
1.90789                -1.298187       -35.98486        -35.17954        159.3313             -200               0             -200               0
1.91447                -1.342444       -36.40175        -34.95004        155.5244             -200               0             -200               0
1.92105                -1.388395       -36.82566        -34.71963        151.6972             -200               0             -200               0
1.92763                 -1.43614       -37.25669        -34.48845        147.8483             -200               0             -200               0
1.93421                -1.485786       -37.69488        -34.25666        143.9763             -200               0             -200               0
1.94079                -1.537445       -38.14025        -34.02443        140.0801             -200               0             -200               0
1.94737                -1.591235       -38.59279        -33.79194        136.1585             -200               0             -200               0
1.95395                -1.647275       -39.05239        -33.55941        132.2106             -200               0             -200               0
1.96053                 -1.70569       -39.51896        -33.32703        128.2355             -200               0             -200               0
1.96711                -1.766606       -39.99231        -33.09504        124.2325             -200               0             -200               0
1.97368                -1.830157       -40.47225        -32.86364         120.201             -200               0             -200               0
1.98026                 -1.89647       -40.95849        -32.63309        116.1405             -200               0             -200               0
1.98684                -1.965684       -41.45072        -32.40359        112.0509             -200               0             -200               0
1.99342                -2.037929       -41.94856        -32.17539        107.9318             -200               0             -200               0
2                      -2.113341       -42.45162        -31.94871        103.7833             -200               0             -200               0
2.00658                -2.192056       -42.95942        -31.72377         99.6053             -200               0             -200               0
2.01316                -2.274209       -43.47144        -31.50079          95.398             -200               0             -200               0
2.01974                -2.359935       -43.98715        -31.27999        91.16163             -200               0             -200               0
2.02632                -2.449368       -44.50594        -31.06156        86.89653             -200               0             -200               0
2.03289                -2.542643       -45.02716        -30.84571        82.60311             -200               0             -200               0
2.03947                -2.639893       -45.55016        -30.63262        78.28185             -200               0             -200               0
2.04605                -2.741249       -46.07421        -30.42248        73.93329             -200               0             -200               0
2.05263                -2.846845       -46.59857        -30.21545        69.55805             -200               0             -200               0
2.05921                -2.956815       -47.12247         -30.0117        65.15677             -200               0             -200               0
2.06579                -3.071293       -47.64509        -29.81138        60.73015             -200               0             -200               0
2.07237                -3.190412       -48.16558        -29.61463        56.27892             -200               0             -200               0
2.07895                 -3.31431        -48.6831        -29.42158        51.80385             -200               0             -200               0
2.08553                -3.443127       -49.19673        -29.23237        47.30572             -200               0             -200               0
2.09211                -3.577004       -49.70554         -29.0471        42.78534             -200               0             -200               0
2.09868                -3.716093       -50.20856        -28.86589        38.24354             -200               0             -200               0
2.10526                -3.860545        -50.7048        -28.68884        33.68115             -200               0             -200               0
2.11184                -4.010521       -51.19319        -28.51604        29.09901             -200               0             -200               0
2.11842                 -4.16619       -51.67266        -28.34757        24.49797             -200               0             -200               0
2.125                  -4.327731       -52.14206        -28.18351        19.87889             -200               0             -200               0
2.13158                -4.495334       -52.60017        -28.02394         15.2426             -200               0             -200               0
2.13816                -4.669202       -53.04571        -27.86892        10.58997             -200               0             -200               0
2.14474                -4.849553        -53.4773        -27.71851         5.92184             -200               0             -200               0
2.15132                -5.036619       -53.89344        -27.57276        1.239042             -200               0             -200               0
2.15789                -5.230654       -54.29254        -27.43172       -3.457589             -200               0             -200               0
2.16447                -5.431928       -54.67283        -27.29544       -8.167221             -200               0             -200               0
2.17105                -5.640735       -55.03237        -27.16396       -12.88904             -200               0             -200               0
2.17763                 -5.85739       -55.36903        -27.03731       -17.62224             -200               0             -200               0
2.18421                -6.082236       -55.68041        -26.91553       -22.36601             -200               0             -200               0
2.19079                -6.315638       -55.96384        -26.79864       -27.11957             -200               0             -200               0
2.19737                -6.557994       -56.21629        -26.68667       -31.88213             -200               0             -200               0
2.20395                -6.809725       -56.43437        -26.57964       -36.65292             -200               0             -200               0
2.21053                -7.071286       -56.61419        -26.47756       -41.43117             -200               0             -200               0
2.21711                -7.343156       -56.75133        -26.38046       -46.21612             -200               0             -200               0
2.22368                -7.625847       -56.84073        -26.28835       -51.00703             -200               0             -200               0
2.23026                -7.919891       -56.87659        -26.20124       -55.80315             -200               0             -200               0
2.23684                -8.225844       -56.85222        -26.11914       -60.60376             -200               0             -200               0
2.24342                -8.544276       -56.75991        -26.04205       -65.40812             -200               0             -200               0
2.25                   -8.875759       -56.59074        -25.96998       -70.21552             -200               0             -200               0
2.25658                -9.220854        -56.3344        -25.90293       -75.02524             -200               0             -200               0
2.26316                -9.580088       -55.97888        -25.84091       -79.83657             -200               0             -200               0
2.26974                -9.953918       -55.51029        -25.78392        -84.6488             -200               0             -200               0
2.27632                 -10.3427       -54.91245        -25.73195       -89.46124             -200               0             -200               0
2.28289                 -10.7466        -54.1666        -25.68499       -94.27318             -200               0             -200               0
2.28947                -11.16554       -53.25104        -25.64305       -99.08393             -200               0             -200               0