! TOUCHSTONE file generated by CST MICROWAVE STUDIO
! Date and time: Sat Mar  8 13:54:40 2025
! Project name: non_fractured.cst
! Parameters = {B=2.5; D=160; F=10; Feed=2.85625; L=100; M=10; R=0.384908; S=1.5; Theta=0; length=57.125; wave=114.25}
! Header version: 2024
! Port assignment regex: !\s*Touchstone port\s*([0-9]+)\s*=\s*(CST MWS port|CST DES external port|CST DES block port)\s*(.+)\s* \(\"(.*)\"\)(\s*mode\s*([0-9]+))?.*
! Touchstone port assignment:
! Touchstone port 1 = CST MWS port 1 ("")
! Touchstone port 2 = CST MWS port 2 ("")
# GHz S DB R 50
1                    -0.01691724       -9.747044        -69.56266       -115.1063             -200               0             -200               0
1.0066               -0.01766703       -9.837016        -68.96814       -120.0002             -200               0             -200               0
1.0132               -0.01850255       -9.927373        -68.43137       -124.9415             -200               0             -200               0
1.0198               -0.01941856       -10.01805        -67.94728       -129.9104             -200               0             -200               0
1.0264               -0.02040811       -10.10899        -67.51174        -134.891             -200               0             -200               0
1.033                -0.02146187       -10.20014        -67.12137       -139.8697             -200               0             -200               0
1.0396                -0.0225703       -10.29146        -66.77342       -144.8346             -200               0             -200               0
1.0462               -0.02372084       -10.38294        -66.46563        -149.775             -200               0             -200               0
1.05281              -0.02490115       -10.47455        -66.19616       -154.6804             -200               0             -200               0
1.05941               -0.0261004        -10.5663         -65.9635       -159.5411             -200               0             -200               0
1.06601              -0.02730437       -10.65821        -65.76644       -164.3467             -200               0             -200               0
1.07261              -0.02850091       -10.75032        -65.60402       -169.0869             -200               0             -200               0
1.07921              -0.02967843       -10.84267        -65.47545       -173.7504             -200               0             -200               0
1.08581              -0.03082592       -10.93531        -65.38013        -178.325             -200               0             -200               0
1.09241               -0.0319352       -11.02834        -65.31756        177.2028             -200               0             -200               0
1.09901              -0.03299806       -11.12182        -65.28733        172.8482             -200               0             -200               0
1.10561              -0.03400878       -11.21586        -65.28905        168.6283             -200               0             -200               0
1.11221              -0.03496488       -11.31055         -65.3223        164.5628             -200               0             -200               0
1.11881              -0.03586475       -11.40599        -65.38653        160.6742             -200               0             -200               0
1.12541              -0.03670933        -11.5023        -65.48093        156.9886             -200               0             -200               0
1.13201              -0.03750206       -11.59957        -65.60433        153.5357             -200               0             -200               0
1.13861              -0.03824964       -11.69791        -65.75493        150.3496             -200               0             -200               0
1.14521              -0.03895981       -11.79742        -65.93004         147.469             -200               0             -200               0
1.15182              -0.03964324       -11.89817        -66.12571        144.9368             -200               0             -200               0
1.15842               -0.0403114       -12.00025        -66.33628        142.7989             -200               0             -200               0
1.16502              -0.04097818       -12.10371        -66.55379        141.1021             -200               0             -200               0
1.17162              -0.04165832       -12.20862        -66.76748        139.8894             -200               0             -200               0
1.17822              -0.04236715         -12.315        -66.96334        139.1932             -200               0             -200               0
1.18482              -0.04312047       -12.42287        -67.12411        139.0251             -200               0             -200               0
1.19142               -0.0439356       -12.53223        -67.23006        139.3635             -200               0             -200               0
1.19802              -0.04482627       -12.64308        -67.26085         140.143             -200               0             -200               0
1.20462              -0.04580929       -12.75538        -67.19856        141.2494             -200               0             -200               0
1.21122              -0.04689691       -12.86909        -67.03115         142.526             -200               0             -200               0
1.21782              -0.04810222       -12.98416        -66.75528        143.7932             -200               0             -200               0
1.22442              -0.04943565       -13.10051        -66.37705        144.8764             -200               0             -200               0
1.23102              -0.05090385       -13.21809        -65.91048         145.632             -200               0             -200               0
1.23762              -0.05251535       -13.33679         -65.3743        145.9623             -200               0             -200               0
1.24422              -0.05427199       -13.45654         -64.7885        145.8182             -200               0             -200               0
1.25083              -0.05617522       -13.57725        -64.17168        145.1913             -200               0             -200               0
1.25743              -0.05822397       -13.69884        -63.53959        144.1017             -200               0             -200               0
1.26403              -0.06041325       -13.82122        -62.90462        142.5868             -200               0             -200               0
1.27063              -0.06273732       -13.94432        -62.27601        140.6923             -200               0             -200               0
1.27723              -0.06518797       -14.06809        -61.66036        138.4656             -200               0             -200               0
1.28383              -0.06775422       -14.19246        -61.06211        135.9523             -200               0             -200               0
1.29043              -0.07042418        -14.3174        -60.48413        133.1947             -200               0             -200               0
1.29703              -0.07318498       -14.44289         -59.9281        130.2304             -200               0             -200               0
1.30363              -0.07602208       -14.56893        -59.39488         127.093             -200               0             -200               0
1.31023              -0.07892105       -14.69553        -58.88472        123.8115             -200               0             -200               0
1.31683              -0.08186796       -14.82272        -58.39747        120.4115             -200               0             -200               0
1.32343              -0.08484833       -14.95055        -57.93269        116.9153             -200               0             -200               0
1.33003              -0.08785031       -15.07909        -57.48975        113.3421             -200               0             -200               0
1.33663              -0.09086074       -15.20843        -57.06791        109.7092             -200               0             -200               0
1.34323              -0.09387083       -15.33867        -56.66632        106.0315             -200               0             -200               0
1.34984              -0.09687243       -15.46991         -56.2841        102.3222             -200               0             -200               0
1.35644              -0.09986039       -15.60228        -55.92031        98.59338             -200               0             -200               0
1.36304               -0.1028324       -15.73592        -55.57401        94.85552             -200               0             -200               0
1.36964               -0.1057889       -15.87095         -55.2442        91.11821             -200               0             -200               0
1.37624               -0.1087323       -16.00752        -54.92989         87.3901             -200               0             -200               0
1.38284               -0.1116694       -16.14576        -54.63006        83.67903             -200               0             -200               0
1.38944               -0.1146087       -16.28582        -54.34368        79.99207             -200               0             -200               0
1.39604                -0.117562        -16.4278        -54.06966        76.33565             -200               0             -200               0
1.40264               -0.1205442       -16.57183        -53.80693        72.71553             -200               0             -200               0
1.40924               -0.1235709       -16.71802        -53.55435        69.13682             -200               0             -200               0
1.41584               -0.1266612       -16.86644        -53.31076          65.604             -200               0             -200               0
1.42244               -0.1298342       -17.01717        -53.07497        62.12089             -200               0             -200               0
1.42904               -0.1331112       -17.17026        -52.84576        58.69056             -200               0             -200               0
1.43564                -0.136514       -17.32576        -52.62186        55.31539             -200               0             -200               0
1.44224               -0.1400639       -17.48367        -52.40201        51.99692             -200               0             -200               0
1.44884               -0.1437821       -17.64399         -52.1849        48.73582             -200               0             -200               0
1.45545                -0.147688        -17.8067        -51.96925         45.5319             -200               0             -200               0
1.46205               -0.1518025       -17.97176        -51.75375        42.38396             -200               0             -200               0
1.46865                -0.156141       -18.13912        -51.53716        39.28985             -200               0             -200               0
1.47525               -0.1607191       -18.30872        -51.31827        36.24642             -200               0             -200               0
1.48185                -0.165549       -18.48046        -51.09594        33.24953             -200               0             -200               0
1.48845               -0.1706411       -18.65428        -50.86912         30.2941             -200               0             -200               0
1.49505               -0.1760011       -18.83008         -50.6369        27.37422             -200               0             -200               0
1.50165               -0.1816342       -19.00778        -50.39847        24.48322             -200               0             -200               0
1.50825               -0.1875404       -19.18728        -50.15323        21.61383             -200               0             -200               0
1.51485               -0.1937183       -19.36852         -49.9007        18.75836             -200               0             -200               0
1.52145               -0.2001618       -19.55142         -49.6406        15.90887             -200               0             -200               0
1.52805               -0.2068649       -19.73593        -49.37283         13.0574             -200               0             -200               0
1.53465               -0.2138175         -19.922        -49.09748        10.19615             -200               0             -200               0
1.54125               -0.2210084       -20.10962        -48.81479         7.31764             -200               0             -200               0
1.54785               -0.2284249       -20.29878        -48.52515        4.414952             -200               0             -200               0
1.55446               -0.2360538       -20.48951        -48.22911        1.481809             -200               0             -200               0
1.56106               -0.2438812       -20.68185         -47.9273       -1.487288             -200               0             -200               0
1.56766                -0.251894       -20.87587        -47.62046          -4.497             -200               0             -200               0
1.57426               -0.2600796       -21.07166        -47.30938       -7.551098             -200               0             -200               0
1.58086                -0.268427       -21.26935        -46.99488       -10.65246             -200               0             -200               0
1.58746               -0.2769278       -21.46906        -46.67781       -13.80312             -200               0             -200               0
1.59406               -0.2855765       -21.67095        -46.35901       -17.00425             -200               0             -200               0
1.60066               -0.2943688        -21.8752        -46.03929        -20.2563             -200               0             -200               0
1.60726               -0.3033058         -22.082        -45.71944         -23.559             -200               0             -200               0
1.61386                -0.312391       -22.29155        -45.40019       -26.91151             -200               0             -200               0
1.62046               -0.3216333       -22.50404        -45.08222       -30.31242             -200               0             -200               0
1.62706               -0.3310465        -22.7197        -44.76615       -33.75992             -200               0             -200               0
1.63366               -0.3406453       -22.93872        -44.45253       -37.25183             -200               0             -200               0
1.64026               -0.3504518       -23.16131        -44.14186       -40.78566             -200               0             -200               0
1.64686                -0.360491       -23.38766        -43.83457       -44.35872             -200               0             -200               0
1.65347               -0.3707921       -23.61795        -43.53101       -47.96814             -200               0             -200               0
1.66007               -0.3813857       -23.85234        -43.23148       -51.61096             -200               0             -200               0
1.66667               -0.3923099       -24.09095        -42.93623       -55.28414             -200               0             -200               0
1.67327               -0.4036019       -24.33392        -42.64544       -58.98462             -200               0             -200               0
1.67987               -0.4153001       -24.58134        -42.35924       -62.70936             -200               0             -200               0
1.68647                -0.427447       -24.83327         -42.0777       -66.45535             -200               0             -200               0
1.69307               -0.4400827       -25.08974        -41.80086       -70.21966             -200               0             -200               0
1.69967                -0.453249       -25.35078        -41.52871       -73.99943             -200               0             -200               0
1.70627               -0.4669886       -25.61635        -41.26119       -77.79193             -200               0             -200               0
1.71287                -0.481339       -25.88642        -40.99821       -81.59452             -200               0             -200               0
1.71947               -0.4963386       -26.16093        -40.73965       -85.40475             -200               0             -200               0
1.72607               -0.5120221       -26.43979        -40.48534       -89.22026             -200               0             -200               0
1.73267               -0.5284225       -26.72291        -40.23509       -93.03892             -200               0             -200               0
1.73927               -0.5455654       -27.01015        -39.98869       -96.85872             -200               0             -200               0
1.74587                -0.563478       -27.30142        -39.74589       -100.6779             -200               0             -200               0
1.75248               -0.5821796       -27.59657        -39.50643       -104.4948             -200               0             -200               0
1.75908               -0.6016867       -27.89549        -39.27002        -108.308             -200               0             -200               0
1.76568               -0.6220137       -28.19807        -39.03637       -112.1165             -200               0             -200               0
1.77228               -0.6431692        -28.5042        -38.80516       -115.9192             -200               0             -200               0
1.77888               -0.6651579       -28.81379        -38.57606       -119.7154             -200               0             -200               0
1.78548               -0.6879832       -29.12678        -38.34874       -123.5046             -200               0             -200               0
1.79208               -0.7116451       -29.44313        -38.12287       -127.2866             -200               0             -200               0
1.79868               -0.7361404       -29.76284        -37.89811       -131.0614             -200               0             -200               0
1.80528                -0.761467       -30.08593        -37.67412       -134.8292             -200               0             -200               0
1.81188               -0.7876219       -30.41246        -37.45058       -138.5905             -200               0             -200               0
1.81848               -0.8146031       -30.74254        -37.22717       -142.3461             -200               0             -200               0
1.82508               -0.8424102       -31.07631        -37.00359        -146.097             -200               0             -200               0
1.83168               -0.8710436       -31.41395        -36.77957       -149.8442             -200               0             -200               0
1.83828               -0.9005098       -31.75567        -36.55483       -153.5891             -200               0             -200               0
1.84488               -0.9308197       -32.10173        -36.32915       -157.3334             -200               0             -200               0
1.85149               -0.9619887       -32.45241        -36.10232       -161.0787             -200               0             -200               0
1.85809               -0.9940401       -32.80805        -35.87416       -164.8269             -200               0             -200               0
1.86469                -1.027005       -33.16896        -35.64455       -168.5801             -200               0             -200               0
1.87129                 -1.06092       -33.53552        -35.41336       -172.3402             -200               0             -200               0
1.87789                -1.095835       -33.90809        -35.18054       -176.1095             -200               0             -200               0
1.88449                -1.131806       -34.28706        -34.94604         -179.89             -200               0             -200               0
1.89109                -1.168899       -34.67279        -34.70988        176.3159             -200               0             -200               0
1.89769                -1.207192       -35.06566        -34.47209        172.5063             -200               0             -200               0
1.90429                 -1.24677       -35.46601        -34.23276         168.679             -200               0             -200               0
1.91089                -1.287732       -35.87415        -33.99198         164.832             -200               0             -200               0
1.91749                -1.330184       -36.29039         -33.7499        160.9634             -200               0             -200               0
1.92409                -1.374241       -36.71496        -33.50669        157.0714             -200               0             -200               0
1.93069                -1.420027       -37.14807        -33.26253        153.1543             -200               0             -200               0
1.93729                -1.467676       -37.58987        -33.01763        149.2108             -200               0             -200               0
1.94389                -1.517328       -38.04042        -32.77223        145.2393             -200               0             -200               0
1.9505                 -1.569127       -38.49976        -32.52658        141.2389             -200               0             -200               0
1.9571                 -1.623228       -38.96783        -32.28092        137.2084             -200               0             -200               0
1.9637                 -1.679784       -39.44453        -32.03552        133.1471             -200               0             -200               0
1.9703                 -1.738956       -39.92963        -31.79066        129.0544             -200               0             -200               0
1.9769                 -1.800906       -40.42288        -31.54661        124.9297             -200               0             -200               0
1.9835                 -1.865797       -40.92394        -31.30363        120.7727             -200               0             -200               0
1.9901                 -1.933793       -41.43236        -31.06199        116.5833             -200               0             -200               0
1.9967                 -2.005057       -41.94765        -30.82197        112.3615             -200               0             -200               0
2.0033                  -2.07975       -42.46925        -30.58382        108.1072             -200               0             -200               0
2.0099                 -2.158032       -42.99651        -30.34778        103.8209             -200               0             -200               0
2.0165                  -2.24006       -43.52872         -30.1141        99.50284             -200               0             -200               0
2.0231                 -2.325985       -44.06511        -29.88302        95.15342             -200               0             -200               0
2.0297                 -2.415957       -44.60485        -29.65474        90.77321             -200               0             -200               0
2.0363                 -2.510121       -45.14708        -29.42949         86.3628             -200               0             -200               0
2.0429                 -2.608616       -45.69084        -29.20745        81.92289             -200               0             -200               0
2.0495                 -2.711578       -46.23517        -28.98881         77.4542             -200               0             -200               0
2.05611                -2.819138       -46.77905        -28.77375        72.95752             -200               0             -200               0
2.06271                -2.931422       -47.32143        -28.56243        68.43368             -200               0             -200               0
2.06931                -3.048551       -47.86125          -28.355        63.88354             -200               0             -200               0
2.07591                -3.170647       -48.39739         -28.1516        59.30799             -200               0             -200               0
2.08251                -3.297827       -48.92873        -27.95236        54.70793             -200               0             -200               0
2.08911                -3.430204       -49.45413        -27.75741         50.0843             -200               0             -200               0
2.09571                -3.567895       -49.97242        -27.56684        45.43803             -200               0             -200               0
2.10231                -3.711013       -50.48243        -27.38077        40.77004             -200               0             -200               0
2.10891                -3.859676       -50.98298        -27.19929         36.0813             -200               0             -200               0
2.11551                -4.014006       -51.47284        -27.02247        31.37274             -200               0             -200               0
2.12211                -4.174128       -51.95078         -26.8504        26.64529             -200               0             -200               0
2.12871                -4.340176       -52.41555        -26.68315        21.89989             -200               0             -200               0
2.13531                -4.512291       -52.86585        -26.52078        17.13747             -200               0             -200               0
2.14191                -4.690628       -53.30036        -26.36334        12.35894             -200               0             -200               0
2.14851                -4.875353       -53.71766        -26.21088        7.565195             -200               0             -200               0
2.15512                -5.066651       -54.11632        -26.06346        2.757137             -200               0             -200               0
2.16172                -5.264721       -54.49477        -25.92111       -2.064355             -200               0             -200               0
2.16832                -5.469785       -54.85133        -25.78387       -6.898413             -200               0             -200               0
2.17492                -5.682087        -55.1842        -25.65177       -11.74418             -200               0             -200               0
2.18152                -5.901898        -55.4914        -25.52484       -16.60082             -200               0             -200               0
2.18812                -6.129513       -55.77071         -25.4031       -21.46749             -200               0             -200               0
2.19472                -6.365259       -56.01968        -25.28657       -26.34339             -200               0             -200               0
2.20132                -6.609494       -56.23553        -25.17528        -31.2277             -200               0             -200               0
2.20792                -6.862607       -56.41511        -25.06923       -36.11964             -200               0             -200               0
2.21452                -7.125019       -56.55484        -24.96844       -41.01842             -200               0             -200               0
2.22112                -7.397188       -56.65056        -24.87293       -45.92327             -200               0             -200               0
2.22772                -7.679599       -56.69753        -24.78269       -50.83343             -200               0             -200               0
2.23432                 -7.97277       -56.69025        -24.69774       -55.74814             -200               0             -200               0
2.24092                -8.277243       -56.62233        -24.61808       -60.66667             -200               0             -200               0
2.24752                -8.593573       -56.48637        -24.54372       -65.58827             -200               0             -200               0
2.25413                -8.922325       -56.27375        -24.47465       -70.51222             -200               0             -200               0
2.26073                -9.264054        -55.9744        -24.41088        -75.4378             -200               0             -200               0
2.26733                -9.619277       -55.57663         -24.3524       -80.36429             -200               0             -200               0
2.27393                -9.988445        -55.0668        -24.29922       -85.29097             -200               0             -200               0
2.28053                 -10.3719       -54.42897        -24.25132       -90.21713             -200               0             -200               0
2.28713                -10.76979       -53.64468        -24.20871       -95.14208             -200               0             -200               0
2.29373                -11.18202        -52.6925        -24.17138       -100.0651             -200               0             -200               0