! TOUCHSTONE file generated by CST MICROWAVE STUDIO
! Date and time: Sat Mar  8 13:53:52 2025
! Project name: non_fractured.cst
! Parameters = {B=2.5; D=160; F=5; Feed=2.85625; L=100; M=5; R=0.384908; S=1; Theta=0; length=57.125; wave=114.25}
! Header version: 2024
! Port assignment regex: !\s*Touchstone port\s*([0-9]+)\s*=\s*(CST MWS port|CST DES external port|CST DES block port)\s*(.+)\s* \(\"(.*)\"\)(\s*mode\s*([0-9]+))?.*
! Touchstone port assignment:
! Touchstone port 1 = CST MWS port 1 ("")
! Touchstone port 2 = CST MWS port 2 ("")
# GHz S DB R 50
1                    -0.02020474       -9.822256        -66.32129       -96.99981             -200               0             -200               0
1.00658              -0.02063501       -9.909822        -65.80828       -102.6437             -200               0             -200               0
1.01316              -0.02107298       -9.998223        -65.34135       -108.2419             -200               0             -200               0
1.01974               -0.0215282       -10.08748          -64.917       -113.7926             -200               0             -200               0
1.02632              -0.02200617       -10.17759        -64.53233       -119.2939             -200               0             -200               0
1.03289              -0.02251482       -10.26856        -64.18495       -124.7432             -200               0             -200               0
1.03947              -0.02306115       -10.36038        -63.87287       -130.1377             -200               0             -200               0
1.04605              -0.02365192       -10.45304        -63.59444       -135.4741             -200               0             -200               0
1.05263               -0.0242925        -10.5465        -63.34827       -140.7483             -200               0             -200               0
1.05921              -0.02498678       -10.64076         -63.1332       -145.9561             -200               0             -200               0
1.06579              -0.02573951       -10.73576        -62.94828       -151.0922             -200               0             -200               0
1.07237              -0.02655275       -10.83149         -62.7927       -156.1509             -200               0             -200               0
1.07895              -0.02742768       -10.92789        -62.66578       -161.1256             -200               0             -200               0
1.08553              -0.02836496       -11.02494        -62.56695       -166.0085             -200               0             -200               0
1.09211               -0.0293617       -11.12259         -62.4957       -170.7911             -200               0             -200               0
1.09868              -0.03041682       -11.22081        -62.45159       -175.4635             -200               0             -200               0
1.10526              -0.03152615       -11.31958        -62.43415        179.9858             -200               0             -200               0
1.11184              -0.03268375       -11.41887        -62.44291        175.5697             -200               0             -200               0
1.11842                -0.033885       -11.51866        -62.47728        171.3028             -200               0             -200               0
1.125                -0.03512202       -11.61894        -62.53655        167.2022             -200               0             -200               0
1.13158              -0.03638756       -11.71971        -62.61974        163.2867             -200               0             -200               0
1.13816              -0.03767557       -11.82099        -62.72554        159.5778             -200               0             -200               0
1.14474              -0.03897622       -11.92279        -62.85217        156.0995             -200               0             -200               0
1.15132              -0.04028328       -12.02514        -62.99716        152.8778             -200               0             -200               0
1.15789              -0.04158927       -12.12808        -63.15719        149.9408             -200               0             -200               0
1.16447              -0.04288732       -12.23166        -63.32785        147.3175             -200               0             -200               0
1.17105              -0.04417185       -12.33594        -63.50333        145.0363             -200               0             -200               0
1.17763              -0.04543896       -12.44098        -63.67625        143.1222             -200               0             -200               0
1.18421              -0.04668458       -12.54686        -63.83743        141.5935             -200               0             -200               0
1.19079              -0.04790699       -12.65364        -63.97604        140.4566             -200               0             -200               0
1.19737              -0.04910581       -12.76142        -64.07984        139.7007             -200               0             -200               0
1.20395              -0.05028263       -12.87028        -64.13606        139.2923             -200               0             -200               0
1.21053              -0.05144108        -12.9803        -64.13266        139.1721             -200               0             -200               0
1.21711              -0.05258483       -13.09156        -64.05985        139.2555             -200               0             -200               0
1.22368              -0.05372058       -13.20414        -63.91169        139.4386             -200               0             -200               0
1.23026              -0.05485643       -13.31811        -63.68713        139.6085             -200               0             -200               0
1.23684              -0.05600048       -13.43355        -63.39016        139.6565             -200               0             -200               0
1.24342              -0.05716468       -13.55051        -63.02909        139.4902             -200               0             -200               0
1.25                 -0.05835999       -13.66904         -62.6151         139.041             -200               0             -200               0
1.25658              -0.05959834       -13.78919        -62.16061        138.2667             -200               0             -200               0
1.26316              -0.06089242       -13.91098        -61.67792        137.1493             -200               0             -200               0
1.26974              -0.06225563       -14.03443        -61.17817        135.6902             -200               0             -200               0
1.27632              -0.06370009       -14.15955         -60.6709        133.9047             -200               0             -200               0
1.28289              -0.06523962       -14.28635        -60.16384        131.8168             -200               0             -200               0
1.28947               -0.0668846        -14.4148        -59.66303        129.4552             -200               0             -200               0
1.29605              -0.06864804        -14.5449        -59.17303        126.8499             -200               0             -200               0
1.30263              -0.07053892       -14.67659        -58.69718        124.0309             -200               0             -200               0
1.30921              -0.07256664       -14.80986        -58.23783        121.0267             -200               0             -200               0
1.31579              -0.07473872       -14.94465        -57.79656        117.8637             -200               0             -200               0
1.32237              -0.07706079       -15.08093        -57.37438         114.566             -200               0             -200               0
1.32895              -0.07953839       -15.21865        -56.97184        111.1556             -200               0             -200               0
1.33553              -0.08217277       -15.35774        -56.58918        107.6522             -200               0             -200               0
1.34211              -0.08496697       -15.49818        -56.22639        104.0738             -200               0             -200               0
1.34868              -0.08791913       -15.63993        -55.88327        100.4366             -200               0             -200               0
1.35526                -0.091029       -15.78293        -55.55949         96.7553             -200               0             -200               0
1.36184               -0.0942927       -15.92716        -55.25462         93.0433             -200               0             -200               0
1.36842               -0.0977077       -16.07261        -54.96813        89.31298             -200               0             -200               0
1.375                 -0.1012684       -16.21925        -54.69945        85.57581             -200               0             -200               0
1.38158               -0.1049697       -16.36709        -54.44793        81.84244             -200               0             -200               0
1.38816               -0.1088064       -16.51613        -54.21288        78.12291             -200               0             -200               0
1.39474               -0.1127723        -16.6664        -53.99354        74.42669             -200               0             -200               0
1.40132               -0.1168637       -16.81791        -53.78909        70.76276             -200               0             -200               0
1.40789               -0.1210746       -16.97072        -53.59866        67.13969             -200               0             -200               0
1.41447               -0.1254024       -17.12487        -53.42129        63.56563             -200               0             -200               0
1.42105               -0.1298433       -17.28042        -53.25594        60.04833             -200               0             -200               0
1.42763               -0.1343971       -17.43744         -53.1015        56.59514             -200               0             -200               0
1.43421               -0.1390627       -17.59599        -52.95672         53.2129             -200               0             -200               0
1.44079               -0.1438433       -17.75615        -52.82027         49.9079             -200               0             -200               0
1.44737               -0.1487403         -17.918        -52.69071        46.68579             -200               0             -200               0
1.45395               -0.1537605       -18.08161        -52.56644        43.55136             -200               0             -200               0
1.46053               -0.1589094       -18.24707        -52.44578        40.50848             -200               0             -200               0
1.46711               -0.1641964       -18.41443        -52.32692        37.55982             -200               0             -200               0
1.47368               -0.1696305       -18.58377        -52.20796        34.70669             -200               0             -200               0
1.48026               -0.1752227       -18.75515        -52.08691        31.94881             -200               0             -200               0
1.48684               -0.1809858       -18.92861        -51.96175        29.28416             -200               0             -200               0
1.49342               -0.1869322       -19.10419        -51.83046        26.70874             -200               0             -200               0
1.5                   -0.1930752       -19.28193        -51.69108        24.21654             -200               0             -200               0
1.50658               -0.1994292       -19.46183        -51.54175        21.79947             -200               0             -200               0
1.51316                -0.206007       -19.64392        -51.38079        19.44744             -200               0             -200               0
1.51974               -0.2128225       -19.82818        -51.20677        17.14856             -200               0             -200               0
1.52632               -0.2198868        -20.0146        -51.01856         14.8894             -200               0             -200               0
1.53289               -0.2272127       -20.20316        -50.81539        12.65547             -200               0             -200               0
1.53947                -0.234808       -20.39382        -50.59685        10.43161             -200               0             -200               0
1.54605               -0.2426826       -20.58655        -50.36296        8.202593             -200               0             -200               0
1.55263               -0.2508416        -20.7813        -50.11409        5.953646             -200               0             -200               0
1.55921                 -0.25929       -20.97804          -49.851        3.670937             -200               0             -200               0
1.56579               -0.2680299       -21.17671        -49.57474        1.342018             -200               0             -200               0
1.57237               -0.2770612       -21.37728        -49.28662       -1.043856             -200               0             -200               0
1.57895               -0.2863826       -21.57973        -48.98815       -3.495517             -200               0             -200               0
1.58553               -0.2959897       -21.78401        -48.68095       -6.019783             -200               0             -200               0
1.59211               -0.3058771       -21.99012        -48.36671       -8.621476             -200               0             -200               0
1.59868               -0.3160366       -22.19805        -48.04711       -11.30351             -200               0             -200               0
1.60526               -0.3264603       -22.40783         -47.7238       -14.06705             -200               0             -200               0
1.61184               -0.3371397        -22.6195        -47.39833       -16.91173             -200               0             -200               0
1.61842                -0.348063       -22.83309        -47.07215       -19.83584             -200               0             -200               0
1.625                 -0.3592196       -23.04869        -46.74659       -22.83659             -200               0             -200               0
1.63158               -0.3706035       -23.26639        -46.42283       -25.91029             -200               0             -200               0
1.63816               -0.3822018       -23.48631         -46.1019       -29.05258             -200               0             -200               0
1.64474               -0.3940101       -23.70859        -45.78472       -32.25858             -200               0             -200               0
1.65132               -0.4060211       -23.93339        -45.47203       -35.52306             -200               0             -200               0
1.65789               -0.4182319       -24.16088        -45.16446       -38.84056             -200               0             -200               0
1.66447               -0.4306437       -24.39127        -44.86253       -42.20549             -200               0             -200               0
1.67105               -0.4432565       -24.62474        -44.56662       -45.61224             -200               0             -200               0
1.67763               -0.4560798       -24.86155        -44.27703       -49.05522             -200               0             -200               0
1.68421               -0.4691225        -25.1019        -43.99393       -52.52891             -200               0             -200               0
1.69079               -0.4823994       -25.34604        -43.71743       -56.02794             -200               0             -200               0
1.69737               -0.4959289       -25.59421        -43.44754        -59.5471             -200               0             -200               0
1.70395               -0.5097345       -25.84665        -43.18421       -63.08136             -200               0             -200               0
1.71053               -0.5238418       -26.10359        -42.92729        -66.6259             -200               0             -200               0
1.71711               -0.5382833       -26.36526        -42.67659       -70.17615             -200               0             -200               0
1.72368               -0.5530932       -26.63186        -42.43184       -73.72777             -200               0             -200               0
1.73026               -0.5683101       -26.90361        -42.19274        -77.2767             -200               0             -200               0
1.73684               -0.5839751       -27.18067         -41.9589       -80.81918             -200               0             -200               0
1.74342               -0.6001355       -27.46323        -41.72991       -84.35175             -200               0             -200               0
1.75                  -0.6168345        -27.7514        -41.50529       -87.87129             -200               0             -200               0
1.75658               -0.6341224       -28.04533        -41.28451       -91.37502             -200               0             -200               0
1.76316               -0.6520475        -28.3451        -41.06704       -94.86058             -200               0             -200               0
1.76974               -0.6706639       -28.65078        -40.85227       -98.32599             -200               0             -200               0
1.77632                 -0.69002       -28.96243        -40.63957       -101.7697             -200               0             -200               0
1.78289               -0.7101672       -29.28007        -40.42832       -105.1907             -200               0             -200               0
1.78947               -0.7311546       -29.60373        -40.21782       -108.5884             -200               0             -200               0
1.79605               -0.7530331       -29.93338        -40.00742       -111.9627             -200               0             -200               0
1.80263               -0.7758473       -30.26901        -39.79642       -115.3141             -200               0             -200               0
1.80921               -0.7996453        -30.6106        -39.58417       -118.6437             -200               0             -200               0
1.81579               -0.8244684       -30.95809           -39.37       -121.9529             -200               0             -200               0
1.82237               -0.8503595       -31.31145        -39.15329        -125.244             -200               0             -200               0
1.82895               -0.8773581       -31.67064        -38.93346       -128.5195             -200               0             -200               0
1.83553               -0.9055016       -32.03562        -38.70998       -131.7826             -200               0             -200               0
1.84211               -0.9348267       -32.40636        -38.48237       -135.0369             -200               0             -200               0
1.84868               -0.9653668       -32.78285        -38.25023       -138.2861             -200               0             -200               0
1.85526                -0.997157       -33.16508        -38.01324       -141.5348             -200               0             -200               0
1.86184                -1.030231       -33.55308        -37.77116       -144.7873             -200               0             -200               0
1.86842                -1.064621       -33.94688        -37.52385       -148.0483             -200               0             -200               0
1.875                  -1.100363       -34.34656        -37.27125       -151.3226             -200               0             -200               0
1.88158                -1.137494        -34.7522         -37.0134       -154.6149             -200               0             -200               0
1.88816                -1.176053       -35.16392        -36.75043       -157.9298             -200               0             -200               0
1.89474                -1.216083       -35.58185        -36.48254       -161.2718             -200               0             -200               0
1.90132                -1.257631       -36.00618        -36.21002       -164.6449             -200               0             -200               0
1.90789                 -1.30075       -36.43709        -35.93322       -168.0532             -200               0             -200               0
1.91447                -1.345499        -36.8748        -35.65257          -171.5             -200               0             -200               0
1.92105                -1.391944       -37.31952        -35.36852       -174.9884             -200               0             -200               0
1.92763                -1.440161       -37.77152        -35.08157        -178.521             -200               0             -200               0
1.93421                 -1.49023       -38.23102        -34.79226        177.8999             -200               0             -200               0
1.94079                -1.542245       -38.69831        -34.50113        174.2726             -200               0             -200               0
1.94737                -1.596309       -39.17361        -34.20873        170.5958             -200               0             -200               0
1.95395                -1.652535       -39.65717        -33.91563        166.8685             -200               0             -200               0
1.96053                -1.711046       -40.14922        -33.62236        163.0904             -200               0             -200               0
1.96711                -1.771977       -40.64994        -33.32947         159.261             -200               0             -200               0
1.97368                -1.835476       -41.15951        -33.03746        155.3808             -200               0             -200               0
1.98026                -1.901699       -41.67805        -32.74682          151.45             -200               0             -200               0
1.98684                -1.970818       -42.20563        -32.45803        147.4694             -200               0             -200               0
1.99342                 -2.04301       -42.74226        -32.17151        143.4399             -200               0             -200               0
2                      -2.118468       -43.28791        -31.88768        139.3626             -200               0             -200               0
2.00658                -2.197393       -43.84245        -31.60691        135.2388             -200               0             -200               0
2.01316                -2.279997       -44.40568        -31.32955        131.0698             -200               0             -200               0
2.01974                -2.366497       -44.97733        -31.05592         126.857             -200               0             -200               0
2.02632                -2.457129       -45.55703        -30.78631        122.6022             -200               0             -200               0
2.03289                -2.552129       -46.14431        -30.52098        118.3067             -200               0             -200               0
2.03947                 -2.65174        -46.7386        -30.26017        113.9724             -200               0             -200               0
2.04605                -2.756218       -47.33924        -30.00409        109.6008             -200               0             -200               0
2.05263                -2.865822       -47.94542        -29.75294        105.1936             -200               0             -200               0
2.05921                -2.980817       -48.55626        -29.50686        100.7525             -200               0             -200               0
2.06579                -3.101475       -49.17074        -29.26603        96.27905             -200               0             -200               0
2.07237                -3.228073        -49.7877        -29.03056        91.77495             -200               0             -200               0
2.07895                -3.360892       -50.40588        -28.80057        87.24178             -200               0             -200               0
2.08553                -3.500218       -51.02388        -28.57616        82.68109             -200               0             -200               0
2.09211                -3.646342       -51.64015        -28.35742        78.09443             -200               0             -200               0
2.09868                -3.799559       -52.25301        -28.14441        73.48328             -200               0             -200               0
2.10526                -3.960168       -52.86061         -27.9372         68.8491             -200               0             -200               0
2.11184                -4.128475       -53.46095        -27.73584        64.19329             -200               0             -200               0
2.11842                -4.304786       -54.05188        -27.54036        59.51724             -200               0             -200               0
2.125                  -4.489418       -54.63104        -27.35081        54.82227             -200               0             -200               0
2.13158                -4.682688       -55.19589        -27.16721        50.10967             -200               0             -200               0
2.13816                -4.884925       -55.74367        -26.98958         45.3807             -200               0             -200               0
2.14474                -5.096461       -56.27141        -26.81794        40.63657             -200               0             -200               0
2.15132                -5.317634       -56.77588        -26.65228        35.87845             -200               0             -200               0
2.15789                -5.548794       -57.25355        -26.49263        31.10751             -200               0             -200               0
2.16447                -5.790295       -57.70061        -26.33897        26.32483             -200               0             -200               0
2.17105                  -6.0425       -58.11286        -26.19131         21.5315             -200               0             -200               0
2.17763                -6.305785       -58.48573        -26.04963        16.72856             -200               0             -200               0
2.18421                -6.580529       -58.81419        -25.91394        11.91703             -200               0             -200               0
2.19079                -6.867118       -59.09269        -25.78421        7.097907             -200               0             -200               0
2.19737                -7.165946       -59.31505        -25.66044        2.272152             -200               0             -200               0
2.20395                -7.477408       -59.47445        -25.54261       -2.559289             -200               0             -200               0
2.21053                -7.801894       -59.56322         -25.4307       -7.395496             -200               0             -200               0
2.21711                -8.139782       -59.57278        -25.32469       -12.23557             -200               0             -200               0
2.22368                -8.491431       -59.49348        -25.22457       -17.07862             -200               0             -200               0
2.23026                -8.857157       -59.31438        -25.13032       -21.92379             -200               0             -200               0
2.23684                -9.237219        -59.0231         -25.0419       -26.77021             -200               0             -200               0
2.24342                -9.631777       -58.60553         -24.9593       -31.61705             -200               0             -200               0
2.25                   -10.04086       -58.04565         -24.8825        -36.4635             -200               0             -200               0
2.25658                -10.46428       -57.32518        -24.81147       -41.30871             -200               0             -200               0
2.26316                -10.90159       -56.42333        -24.74618       -46.15189             -200               0             -200               0
2.26974                -11.35193       -55.31659        -24.68661       -50.99223             -200               0             -200               0
2.27632                -11.81391        -53.9785        -24.63273       -55.82894             -200               0             -200               0
2.28289                -12.28538       -52.37978        -24.58451       -60.66124             -200               0             -200               0
2.28947                -12.76324       -50.48854        -24.54193       -65.48832             -200               0             -200               0