! TOUCHSTONE file generated by CST MICROWAVE STUDIO
! Date and time: Tue Mar 18 20:31:50 2025
! Project name: hairline.cst
! Parameters = {B=12.5; D=160; F=25; Feed=2.85625; Fracture=0.5; L=100; M=50; R=0.384908; S=1.5; Theta=180; length=57.125; wave=114.25}
! Header version: 2024
! Port assignment regex: !\s*Touchstone port\s*([0-9]+)\s*=\s*(CST MWS port|CST DES external port|CST DES block port)\s*(.+)\s* \(\"(.*)\"\)(\s*mode\s*([0-9]+))?.*
! Touchstone port assignment:
! Touchstone port 1 = CST MWS port 1 ("")
! Touchstone port 2 = CST MWS port 2 ("")
# GHz S DB R 50
1                    -0.01931328       -9.749475        -70.71512        117.5233             -200               0             -200               0
1.00758              -0.02030526       -9.849511        -70.91761        112.4345             -200               0             -200               0
1.01515               -0.0213059       -9.950055         -71.1504        107.5163             -200               0             -200               0
1.02273              -0.02231024       -10.05114        -71.41477        102.7935             -200               0             -200               0
1.0303               -0.02331364       -10.15281        -71.71191        98.29628             -200               0             -200               0
1.03788              -0.02431176        -10.2551         -72.0428        94.06239             -200               0             -200               0
1.04545              -0.02529957       -10.35807        -72.40794        90.13816             -200               0             -200               0
1.05303              -0.02627544       -10.46177        -72.80698        86.58069             -200               0             -200               0
1.06061              -0.02723759       -10.56627        -73.23812        83.45978             -200               0             -200               0
1.06818              -0.02818521       -10.67162        -73.69719        80.85937             -200               0             -200               0
1.07576              -0.02911837        -10.7779        -74.17627        78.87731             -200               0             -200               0
1.08333              -0.03003915       -10.88516        -74.66178        77.62131             -200               0             -200               0
1.09091              -0.03095013       -10.99347        -75.13223          77.197             -200               0             -200               0
1.09848              -0.03185598       -11.10289        -75.55619        77.68327             -200               0             -200               0
1.10606              -0.03276136       -11.21348        -75.89204        79.09175             -200               0             -200               0
1.11364              -0.03367203       -11.32531        -76.09223        81.31703             -200               0             -200               0
1.12121              -0.03459545       -11.43841        -76.11367        84.10323             -200               0             -200               0
1.12879              -0.03553974       -11.55284        -75.93187        87.06442             -200               0             -200               0
1.13636              -0.03651109       -11.66864        -75.55082        89.77265             -200               0             -200               0
1.14394              -0.03752089       -11.78583        -75.00129        91.87113             -200               0             -200               0
1.15152              -0.03857686       -11.90445        -74.32885        93.14573             -200               0             -200               0
1.15909              -0.03968883       -12.02451        -73.58009        93.52763             -200               0             -200               0
1.16667              -0.04086529       -12.14603        -72.79398         93.0518             -200               0             -200               0
1.17424              -0.04211603         -12.269        -71.99903        91.80815             -200               0             -200               0
1.18182              -0.04344946       -12.39344        -71.21426        89.90519             -200               0             -200               0
1.18939               -0.0448732       -12.51932        -70.45139        87.44934             -200               0             -200               0
1.19697              -0.04639506       -12.64663        -69.71707        84.53559             -200               0             -200               0
1.20455              -0.04802135       -12.77537        -69.01462        81.24478             -200               0             -200               0
1.21212               -0.0497576        -12.9055        -68.34525        77.64402             -200               0             -200               0
1.2197               -0.05160881         -13.037        -67.70892        73.78833             -200               0             -200               0
1.22727              -0.05357807       -13.16984        -67.10486         69.7227             -200               0             -200               0
1.23485              -0.05566839       -13.30401         -66.5319        65.48389             -200               0             -200               0
1.24242               -0.0578808       -13.43947        -65.98867        61.10208             -200               0             -200               0
1.25                 -0.06021558       -13.57621        -65.47375        56.60218             -200               0             -200               0
1.25758              -0.06267244        -13.7142        -64.98573         52.0049             -200               0             -200               0
1.26515               -0.0652484       -13.85342        -64.52327         47.3276             -200               0             -200               0
1.27273              -0.06794273       -13.99388        -64.08508        42.58495             -200               0             -200               0
1.2803               -0.07075192       -14.13557        -63.66998         37.7895             -200               0             -200               0
1.28788              -0.07367261        -14.2785        -63.27687        32.95205             -200               0             -200               0
1.29545              -0.07669974       -14.42267        -62.90474        28.08202             -200               0             -200               0
1.30303              -0.07983083       -14.56811        -62.55265        23.18772             -200               0             -200               0
1.31061              -0.08306155       -14.71485        -62.21977        18.27657             -200               0             -200               0
1.31818              -0.08638719       -14.86293         -61.9053        13.35525             -200               0             -200               0
1.32576              -0.08980532       -15.01239        -61.60852        8.429898             -200               0             -200               0
1.33333               -0.0933125       -15.16329        -61.32877        3.506187             -200               0             -200               0
1.34091              -0.09690756       -15.31569        -61.06544        -1.41055             -200               0             -200               0
1.34848                 -0.10059       -15.46966        -60.81794       -6.315244             -200               0             -200               0
1.35606               -0.1043583       -15.62527        -60.58573       -11.20301             -200               0             -200               0
1.36364               -0.1082154        -15.7826         -60.3683       -16.06909             -200               0             -200               0
1.37121               -0.1121633       -15.94174        -60.16516        -20.9088             -200               0             -200               0
1.37879               -0.1162071       -16.10278        -59.97581       -25.71745             -200               0             -200               0
1.38636                -0.120352       -16.26578        -59.79979       -30.49036             -200               0             -200               0
1.39394               -0.1246048       -16.43086        -59.63661       -35.22279             -200               0             -200               0
1.40152               -0.1289756       -16.59808        -59.48579       -39.90989             -200               0             -200               0
1.40909               -0.1334732       -16.76753         -59.3468       -44.54674             -200               0             -200               0
1.41667               -0.1381098       -16.93928        -59.21912       -49.12824             -200               0             -200               0
1.42424               -0.1428973       -17.11341        -59.10216       -53.64922             -200               0             -200               0
1.43182               -0.1478503       -17.28998        -58.99528       -58.10433             -200               0             -200               0
1.43939               -0.1529835       -17.46904        -58.89778       -62.48812             -200               0             -200               0
1.44697               -0.1583118       -17.65065        -58.80889       -66.79502             -200               0             -200               0
1.45455               -0.1638511       -17.83485        -58.72773       -71.01945             -200               0             -200               0
1.46212                -0.169618       -18.02166        -58.65332        -75.1558             -200               0             -200               0
1.4697                -0.1756285       -18.21111        -58.58455       -79.19862             -200               0             -200               0
1.47727               -0.1818993       -18.40321        -58.52018       -83.14263             -200               0             -200               0
1.48485               -0.1884455       -18.59796         -58.4588       -86.98297             -200               0             -200               0
1.49242               -0.1952845       -18.79537        -58.39886       -90.71536             -200               0             -200               0
1.5                   -0.2024291       -18.99541        -58.33863       -94.33631             -200               0             -200               0
1.50758               -0.2098932       -19.19808         -58.2762       -97.84339             -200               0             -200               0
1.51515               -0.2176915       -19.40334        -58.20954       -101.2356             -200               0             -200               0
1.52273               -0.2258335       -19.61118        -58.13644       -104.5134             -200               0             -200               0
1.5303                -0.2343309       -19.82156        -58.05462       -107.6797             -200               0             -200               0
1.53788               -0.2431918       -20.03444        -57.96173       -110.7391             -200               0             -200               0
1.54545               -0.2524243       -20.24982        -57.85546       -113.6992             -200               0             -200               0
1.55303               -0.2620353       -20.46764        -57.73357       -116.5699             -200               0             -200               0
1.56061               -0.2720292        -20.6879          -57.594       -119.3639             -200               0             -200               0
1.56818               -0.2824105       -20.91057        -57.43499       -122.0963             -200               0             -200               0
1.57576               -0.2931819       -21.13564        -57.25511       -124.7842             -200               0             -200               0
1.58333               -0.3043457       -21.36311        -57.05338       -127.4464             -200               0             -200               0
1.59091               -0.3159024       -21.59299        -56.82932       -130.1026             -200               0             -200               0
1.59848               -0.3278529       -21.82529        -56.58295        -132.773             -200               0             -200               0
1.60606               -0.3401984       -22.06003        -56.31479       -135.4768             -200               0             -200               0
1.61364               -0.3529387       -22.29728        -56.02585       -138.2324             -200               0             -200               0
1.62121               -0.3660754       -22.53707        -55.71752       -141.0562             -200               0             -200               0
1.62879                -0.379608       -22.77946        -55.39153       -143.9624             -200               0             -200               0
1.63636               -0.3935398       -23.02455        -55.04986       -146.9627             -200               0             -200               0
1.64394               -0.4078744       -23.27242         -54.6946        -150.066             -200               0             -200               0
1.65152               -0.4226145       -23.52316        -54.32791        -153.279             -200               0             -200               0
1.65909               -0.4377663        -23.7769        -53.95196       -156.6056             -200               0             -200               0
1.66667               -0.4533385       -24.03376        -53.56879       -160.0479             -200               0             -200               0
1.67424               -0.4693409       -24.29386        -53.18036       -163.6059             -200               0             -200               0
1.68182               -0.4857847       -24.55734        -52.78847       -167.2783             -200               0             -200               0
1.68939               -0.5026852       -24.82435        -52.39474       -171.0623             -200               0             -200               0
1.69697               -0.5200587       -25.09503        -52.00062       -174.9546             -200               0             -200               0
1.70455               -0.5379236       -25.36953         -51.6074       -178.9507             -200               0             -200               0
1.71212               -0.5563038         -25.648        -51.21618        176.9539             -200               0             -200               0
1.7197                  -0.57522       -25.93058        -50.82792        172.7642             -200               0             -200               0
1.72727               -0.5947028       -26.21742        -50.44343        168.4852             -200               0             -200               0
1.73485                -0.614779       -26.50865        -50.06339        164.1222             -200               0             -200               0
1.74242               -0.6354815       -26.80442        -49.68837        159.6801             -200               0             -200               0
1.75                  -0.6568429       -27.10483        -49.31884        155.1638             -200               0             -200               0
1.75758               -0.6788983       -27.41002        -48.95518        150.5779             -200               0             -200               0
1.76515               -0.7016844       -27.72008        -48.59768        145.9271             -200               0             -200               0
1.77273                 -0.72524       -28.03511        -48.24658        141.2156             -200               0             -200               0
1.7803                -0.7496067       -28.35521        -47.90206        136.4474             -200               0             -200               0
1.78788               -0.7748224       -28.68044        -47.56426        131.6263             -200               0             -200               0
1.79545               -0.8009306       -29.01088        -47.23327        126.7559             -200               0             -200               0
1.80303               -0.8279726       -29.34659        -46.90915        121.8395             -200               0             -200               0
1.81061               -0.8559929       -29.68761        -46.59192        116.8803             -200               0             -200               0
1.81818               -0.8850334       -30.03399        -46.28161        111.8811             -200               0             -200               0
1.82576               -0.9151368       -30.38577        -45.97819        106.8445             -200               0             -200               0
1.83333               -0.9463472       -30.74299        -45.68163        101.7733             -200               0             -200               0
1.84091               -0.9787082       -31.10568        -45.39191        96.66965             -200               0             -200               0
1.84848                -1.012262       -31.47387        -45.10896        91.53577             -200               0             -200               0
1.85606                -1.047055       -31.84761        -44.83274        86.37369             -200               0             -200               0
1.86364                -1.083129       -32.22692        -44.56316        81.18531             -200               0             -200               0
1.87121                -1.120529       -32.61186        -44.30018        75.97238             -200               0             -200               0
1.87879                  -1.1593       -33.00249         -44.0437        70.73654             -200               0             -200               0
1.88636                -1.199489       -33.39886        -43.79366        65.47933             -200               0             -200               0
1.89394                -1.241145       -33.80106        -43.54997        60.20215             -200               0             -200               0
1.90152                -1.284316       -34.20918        -43.31257        54.90634             -200               0             -200               0
1.90909                -1.329055       -34.62333        -43.08136        49.59315             -200               0             -200               0
1.91667                -1.375418       -35.04362        -42.85628        44.26374             -200               0             -200               0
1.92424                -1.423463        -35.4702        -42.63724        38.91919             -200               0             -200               0
1.93182                -1.473252       -35.90321        -42.42416        33.56052             -200               0             -200               0
1.93939                -1.524856       -36.34284        -42.21697        28.18869             -200               0             -200               0
1.94697                -1.578347       -36.78925         -42.0156         22.8046             -200               0             -200               0
1.95455                -1.633804       -37.24265        -41.81996        17.40908             -200               0             -200               0
1.96212                -1.691315       -37.70325           -41.63        12.00293             -200               0             -200               0
1.9697                 -1.750976       -38.17126        -41.44564        6.586899             -200               0             -200               0
1.97727                -1.812888       -38.64692        -41.26681        1.161691             -200               0             -200               0
1.98485                -1.877165       -39.13043        -41.09344       -4.272026             -200               0             -200               0
1.99242                -1.943929       -39.62204        -40.92548       -9.713623             -200               0             -200               0
2                      -2.013314       -40.12194        -40.76286       -15.16251             -200               0             -200               0
2.00758                -2.085464       -40.63036        -40.60552       -20.61811             -200               0             -200               0
2.01515                -2.160535       -41.14749         -40.4534       -26.07989             -200               0             -200               0
2.02273                -2.238697        -41.6735        -40.30645       -31.54734             -200               0             -200               0
2.0303                 -2.320133       -42.20852        -40.16461       -37.01998             -200               0             -200               0
2.03788                -2.405036       -42.75265        -40.02784       -42.49734             -200               0             -200               0
2.04545                -2.493618       -43.30598        -39.89608       -47.97897             -200               0             -200               0
2.05303                -2.586104        -43.8685        -39.76928       -53.46446             -200               0             -200               0
2.06061                -2.682733       -44.44019         -39.6474       -58.95339             -200               0             -200               0
2.06818                 -2.78376       -45.02095         -39.5304       -64.44538             -200               0             -200               0
2.07576                -2.889459        -45.6106        -39.41823       -69.94005             -200               0             -200               0
2.08333                -3.000116       -46.20889        -39.31085       -75.43704             -200               0             -200               0
2.09091                -3.116039       -46.81548        -39.20822         -80.936             -200               0             -200               0
2.09848                -3.237551       -47.42994        -39.11031        -86.4366             -200               0             -200               0
2.10606                -3.364995       -48.05174        -39.01708        -91.9385             -200               0             -200               0
2.11364                -3.498734       -48.68021         -38.9285        -97.4414             -200               0             -200               0
2.12121                -3.639149       -49.31459        -38.84453        -102.945             -200               0             -200               0
2.12879                -3.786648       -49.95394        -38.76514       -108.4489             -200               0             -200               0
2.13636                -3.941656        -50.5972        -38.69031        -113.953             -200               0             -200               0
2.14394                -4.104629       -51.24315           -38.62       -119.4569             -200               0             -200               0
2.15152                -4.276043       -51.89034        -38.55419       -124.9603             -200               0             -200               0
2.15909                -4.456408       -52.53717        -38.49286        -130.463             -200               0             -200               0
2.16667                -4.646264       -53.18178        -38.43599       -135.9646             -200               0             -200               0
2.17424                -4.846185       -53.82206        -38.38354        -141.465             -200               0             -200               0
2.18182                -5.056781       -54.45563         -38.3355       -146.9638             -200               0             -200               0
2.18939                -5.278704       -55.07976        -38.29185       -152.4609             -200               0             -200               0
2.19697                -5.512654       -55.69137        -38.25257       -157.9559             -200               0             -200               0
2.20455                 -5.75938       -56.28695        -38.21764       -163.4485             -200               0             -200               0
2.21212                -6.019686       -56.86247        -38.18705       -168.9387             -200               0             -200               0
2.2197                  -6.29444       -57.41335        -38.16079        -174.426             -200               0             -200               0
2.22727                -6.584581       -57.93431        -38.13883       -179.9103             -200               0             -200               0
2.23485                -6.891122       -58.41926        -38.12117        174.6088             -200               0             -200               0
2.24242                -7.215166       -58.86112         -38.1078        169.1314             -200               0             -200               0
2.25                   -7.557907       -59.25169         -38.0987        163.6578             -200               0             -200               0
2.25758                -7.920644       -59.58128        -38.09387        158.1883             -200               0             -200               0
2.26515                -8.304786        -59.8385         -38.0933         152.723             -200               0             -200               0
2.27273                -8.711857       -60.00982        -38.09697        147.2624             -200               0             -200               0
2.2803                 -9.143502         -60.079        -38.10489        141.8066             -200               0             -200               0
2.28788                -9.601472       -60.02648        -38.11705        136.3558             -200               0             -200               0
2.29545                -10.08761        -59.8285        -38.13344        130.9105             -200               0             -200               0
2.30303                -10.60379       -59.45595        -38.15406        125.4707             -200               0             -200               0
2.31061                -11.15186       -58.87299        -38.17891        120.0369             -200               0             -200               0
2.31818                -11.73344       -58.03514        -38.20799        114.6092             -200               0             -200               0
2.32576                -12.34968       -56.88702        -38.24129         109.188             -200               0             -200               0
2.33333                -13.00077       -55.35971        -38.27881        103.7735             -200               0             -200               0
2.34091                 -13.6852       -53.36762        -38.32056        98.36603             -200               0             -200               0
2.34848                -14.39849       -50.80618        -38.36653        92.96591             -200               0             -200               0
2.35606                -15.13131       -47.55139        -38.41674        87.57342             -200               0             -200               0
2.36364                -15.86674       -43.46535        -38.47117        82.18889             -200               0             -200               0
2.37121                -16.57686       -38.41371        -38.52983        76.81263             -200               0             -200               0
2.37879                 -17.2199       -32.30394        -38.59274        71.44497             -200               0             -200               0
2.38636                 -17.7407       -25.14858        -38.65988        66.08626             -200               0             -200               0
2.39394                -18.07902        -17.1371        -38.73127        60.73683             -200               0             -200               0
2.40152                -18.18741       -8.665301        -38.80691        55.39704             -200               0             -200               0
2.40909                -18.05107      -0.2641332        -38.88681        50.06727             -200               0             -200               0
2.41667                -17.69508        7.558641        -38.97098        44.74789             -200               0             -200               0
2.42424                -17.17242        14.46081        -39.05941        39.43929             -200               0             -200               0
2.43182                 -16.5433        20.30659        -39.15212        34.14187             -200               0             -200               0
2.43939                -15.85964        25.11917        -39.24912        28.85605             -200               0             -200               0
2.44697                -15.15925        29.00754        -39.35041        23.58227             -200               0             -200               0
2.45455                -14.46668        32.10968          -39.456        18.32096             -200               0             -200               0
2.46212                -13.79644        34.56071        -39.56589        13.07258             -200               0             -200               0
2.4697                 -13.15627        36.47947         -39.6801          7.8376             -200               0             -200               0
2.47727                -12.54964        37.96508        -39.79863         2.61652             -200               0             -200               0
2.48485                -11.97745        39.09819        -39.92148       -2.590158             -200               0             -200               0