! TOUCHSTONE file generated by CST MICROWAVE STUDIO
! Date and time: Tue Mar 18 20:31:39 2025
! Project name: hairline.cst
! Parameters = {B=12.5; D=160; F=25; Feed=2.85625; Fracture=1; L=100; M=50; R=0.384908; S=1.5; Theta=0; length=57.125; wave=114.25}
! Header version: 2024
! Port assignment regex: !\s*Touchstone port\s*([0-9]+)\s*=\s*(CST MWS port|CST DES external port|CST DES block port)\s*(.+)\s* \(\"(.*)\"\)(\s*mode\s*([0-9]+))?.*
! Touchstone port assignment:
! Touchstone port 1 = CST MWS port 1 ("")
! Touchstone port 2 = CST MWS port 2 ("")
# GHz S DB R 50
1                    -0.01925887       -9.744165        -70.79164        118.1802             -200               0             -200               0
1.00758              -0.02024681       -9.844146        -70.98866        113.1396             -200               0             -200               0
1.01515              -0.02124393       -9.944636        -71.21516        108.2719             -200               0             -200               0
1.02273              -0.02224629       -10.04567        -71.47225        103.6016             -200               0             -200               0
1.0303               -0.02324677       -10.14728        -71.76088        99.15907             -200               0             -200               0
1.03788              -0.02424472       -10.24952        -72.08174        94.98134             -200               0             -200               0
1.04545               -0.0252324       -10.35243        -72.43497        91.11384             -200               0             -200               0
1.05303              -0.02621044       -10.45608         -72.8198        87.61199             -200               0             -200               0
1.06061              -0.02717496       -10.56051        -73.23393        84.54271             -200               0             -200               0
1.06818              -0.02812518       -10.66579        -73.67267        81.98531             -200               0             -200               0
1.07576               -0.0290628       -10.77198        -74.12761        80.03053             -200               0             -200               0
1.08333              -0.02998729       -10.87915        -74.58498        78.77564             -200               0             -200               0
1.09091              -0.03090391       -10.98736        -75.02368        78.31223             -200               0             -200               0
1.09848              -0.03181576       -11.09667        -75.41378         78.7029             -200               0             -200               0
1.10606              -0.03272596       -11.20715        -75.71688        79.94527             -200               0             -200               0
1.11364              -0.03364299       -11.31884        -75.89025        81.93057             -200               0             -200               0
1.12121              -0.03457154       -11.43181         -75.8961        84.41908             -200               0             -200               0
1.12879              -0.03551981       -11.54609        -75.71345        87.06146             -200               0             -200               0
1.13636              -0.03649554       -11.66172        -75.34604        89.47437             -200               0             -200               0
1.14394              -0.03750861       -11.77875        -74.82089        91.33518             -200               0             -200               0
1.15152              -0.03856665       -11.89718        -74.17836        92.44327             -200               0             -200               0
1.15909                 -0.03968       -12.01706        -73.46053        92.72538             -200               0             -200               0
1.16667              -0.04085611       -12.13838        -72.70346        92.20297             -200               0             -200               0
1.17424              -0.04210531       -12.26115        -71.93428        90.95083             -200               0             -200               0
1.18182              -0.04343695       -12.38538        -71.17163         89.0646             -200               0             -200               0
1.18939              -0.04485653       -12.51105        -70.42741        86.64109             -200               0             -200               0
1.19697              -0.04637285       -12.63816        -69.70865        83.76866             -200               0             -200               0
1.20455              -0.04799121       -12.76668        -69.01915        80.52377             -200               0             -200               0
1.21212              -0.04971913       -12.89659        -68.36055        76.97073             -200               0             -200               0
1.2197               -0.05156106       -13.02788        -67.73318        73.16288             -200               0             -200               0
1.22727              -0.05352013       -13.16051         -67.1366        69.14414             -200               0             -200               0
1.23485              -0.05559869       -13.29447        -66.56989        64.95074             -200               0             -200               0
1.24242              -0.05779723       -13.42972         -66.0319        60.61254             -200               0             -200               0
1.25                 -0.06011865       -13.56625        -65.52138        56.15436             -200               0             -200               0
1.25758              -0.06256165       -13.70404        -65.03706        51.59688             -200               0             -200               0
1.26515              -0.06512474       -13.84308         -64.5777        46.95754             -200               0             -200               0
1.27273              -0.06780464       -13.98335         -64.1421        42.25109             -200               0             -200               0
1.2803               -0.07059882       -14.12485        -63.72916        37.49017             -200               0             -200               0
1.28788              -0.07350564       -14.26759        -63.33784        32.68572             -200               0             -200               0
1.29545              -0.07652001       -14.41158        -62.96717        27.84727             -200               0             -200               0
1.30303              -0.07963905       -14.55684        -62.61627        22.98323             -200               0             -200               0
1.31061              -0.08285629       -14.70339         -62.2843        18.10112             -200               0             -200               0
1.31818              -0.08617068       -14.85128        -61.97052        13.20774             -200               0             -200               0
1.32576              -0.08957837       -15.00056        -61.67423        8.309288             -200               0             -200               0
1.33333              -0.09307658       -15.15126        -61.39477        3.411531             -200               0             -200               0
1.34091              -0.09666305       -15.30346        -61.13155       -1.480132             -200               0             -200               0
1.34848               -0.1003375       -15.45723        -60.88399       -6.360572             -200               0             -200               0
1.35606               -0.1040999       -15.61262        -60.65157       -11.22485             -200               0             -200               0
1.36364               -0.1079503       -15.76973        -60.43377       -16.06817             -200               0             -200               0
1.37121                -0.111894       -15.92863        -60.23011        -20.8858             -200               0             -200               0
1.37879                -0.115933        -16.0894         -60.0401       -25.67304             -200               0             -200               0
1.38636               -0.1200726       -16.25214        -59.86326       -30.42518             -200               0             -200               0
1.39394               -0.1243216       -16.41693        -59.69912       -35.13748             -200               0             -200               0
1.40152               -0.1286877       -16.58384        -59.54719       -39.80511             -200               0             -200               0
1.40909               -0.1331799       -16.75296        -59.40695       -44.42312             -200               0             -200               0
1.41667               -0.1378101       -16.92438        -59.27786        -48.9865             -200               0             -200               0
1.42424               -0.1425923       -17.09814        -59.15933       -53.49007             -200               0             -200               0
1.43182                -0.147536       -17.27433        -59.05072       -57.92856             -200               0             -200               0
1.43939               -0.1526589         -17.453        -58.95134       -62.29657             -200               0             -200               0
1.44697               -0.1579752       -17.63419         -58.8604       -66.58865             -200               0             -200               0
1.45455               -0.1635012       -17.81795        -58.77702       -70.79929             -200               0             -200               0
1.46212               -0.1692508       -18.00431        -58.70023       -74.92304             -200               0             -200               0
1.4697                -0.1752424        -18.1933        -58.62891       -78.95455             -200               0             -200               0
1.47727               -0.1814915       -18.38492        -58.56184       -82.88874             -200               0             -200               0
1.48485               -0.1880139       -18.57918        -58.49761       -86.72091             -200               0             -200               0
1.49242               -0.1948248       -18.77608        -58.43469       -90.44697             -200               0             -200               0
1.5                   -0.2019385       -18.97562        -58.37137       -94.06361             -200               0             -200               0
1.50758               -0.2093701       -19.17776        -58.30578       -97.56863             -200               0             -200               0
1.51515               -0.2171312        -19.3825         -58.2359       -100.9611             -200               0             -200               0
1.52273               -0.2252332       -19.58981        -58.15959       -104.2419             -200               0             -200               0
1.5303                -0.2336883       -19.79965        -58.07461       -107.4138             -200               0             -200               0
1.53788                -0.242504         -20.012        -57.97869       -110.4815             -200               0             -200               0
1.54545                -0.251689       -20.22683        -57.86955       -113.4527             -200               0             -200               0
1.55303               -0.2612505       -20.44412        -57.74505        -116.337             -200               0             -200               0
1.56061               -0.2711924       -20.66383        -57.60319        -119.147             -200               0             -200               0
1.56818               -0.2815199       -20.88596        -57.44226       -121.8975             -200               0             -200               0
1.57576               -0.2922349       -21.11049         -57.2609       -124.6051             -200               0             -200               0
1.58333                -0.303341       -21.33741        -57.05817       -127.2882             -200               0             -200               0
1.59091               -0.3148391       -21.56674         -56.8336        -129.966             -200               0             -200               0
1.59848               -0.3267304       -21.79848        -56.58722       -132.6578             -200               0             -200               0
1.60606               -0.3390154       -22.03267        -56.31954       -135.3827             -200               0             -200               0
1.61364               -0.3516937       -22.26934        -56.03153       -138.1583             -200               0             -200               0
1.62121               -0.3647682       -22.50855        -55.72454       -141.0007             -200               0             -200               0
1.62879               -0.3782374       -22.75036        -55.40025       -143.9237             -200               0             -200               0
1.63636               -0.3921054       -22.99484        -55.06057       -146.9386             -200               0             -200               0
1.64394                -0.406374       -23.24208        -54.70752       -150.0545             -200               0             -200               0
1.65152               -0.4210481       -23.49218        -54.34322       -153.2777             -200               0             -200               0
1.65909               -0.4361321       -23.74526        -53.96975       -156.6123             -200               0             -200               0
1.66667               -0.4516359       -24.00142        -53.58912       -160.0604             -200               0             -200               0
1.67424               -0.4675677        -24.2608        -53.20325       -163.6221             -200               0             -200               0
1.68182               -0.4839399       -24.52353        -52.81388       -167.2964             -200               0             -200               0
1.68939               -0.5007649       -24.78976        -52.42261       -171.0806             -200               0             -200               0
1.69697               -0.5180588       -25.05963        -52.03088       -174.9714             -200               0             -200               0
1.70455                -0.535842       -25.33327        -51.63994       -178.9647             -200               0             -200               0
1.71212               -0.5541353       -25.61085         -51.2509        176.9439             -200               0             -200               0
1.7197                -0.5729628       -25.89251         -50.8647        172.7592             -200               0             -200               0
1.72727               -0.5923486       -26.17838        -50.48215        168.4862             -200               0             -200               0
1.73485               -0.6123239       -26.46861        -50.10392        164.1298             -200               0             -200               0
1.74242               -0.6329172       -26.76333         -49.7306         159.695             -200               0             -200               0
1.75                  -0.6541625       -27.06266        -49.36264        155.1865             -200               0             -200               0
1.75758               -0.6760935       -27.36673        -49.00043        150.6089             -200               0             -200               0
1.76515               -0.6987489       -27.67563        -48.64428        145.9667             -200               0             -200               0
1.77273               -0.7221647       -27.98948        -48.29442        141.2641             -200               0             -200               0
1.7803                -0.7463805       -28.30835        -47.95104         136.505             -200               0             -200               0
1.78788               -0.7714362       -28.63233        -47.61429        131.6932             -200               0             -200               0
1.79545               -0.7973745       -28.96149        -47.28425        126.8322             -200               0             -200               0
1.80303               -0.8242369       -29.29589        -46.96099        121.9253             -200               0             -200               0
1.81061               -0.8520647       -29.63557        -46.64455        116.9756             -200               0             -200               0
1.81818                -0.880902        -29.9806        -46.33494        111.9859             -200               0             -200               0
1.82576               -0.9107909         -30.331        -46.03216         106.959             -200               0             -200               0
1.83333                -0.941775       -30.68682        -45.73618        101.8973             -200               0             -200               0
1.84091               -0.9738971        -31.0481        -45.44696        96.80315             -200               0             -200               0
1.84848                -1.007201       -31.41486        -45.16446        91.67876             -200               0             -200               0
1.85606                 -1.04173       -31.78715        -44.88863        86.52611             -200               0             -200               0
1.86364                -1.077528         -32.165        -44.61939         81.3471             -200               0             -200               0
1.87121                -1.114639       -32.54846        -44.35669        76.14347             -200               0             -200               0
1.87879                -1.153108        -32.9376        -44.10046        70.91685             -200               0             -200               0
1.88636                -1.192983       -33.33246        -43.85062        65.66878             -200               0             -200               0
1.89394                -1.234309       -33.73314        -43.60709        60.40067             -200               0             -200               0
1.90152                -1.277138       -34.13972        -43.36981        55.11384             -200               0             -200               0
1.90909                 -1.32152       -34.55229        -43.13868        49.80955             -200               0             -200               0
1.91667                -1.367509       -34.97099        -42.91364        44.48894             -200               0             -200               0
1.92424                -1.415167       -35.39595        -42.69461        39.15311             -200               0             -200               0
1.93182                -1.464552       -35.82732        -42.48152        33.80307             -200               0             -200               0
1.93939                -1.515734       -36.26526        -42.27428        28.43979             -200               0             -200               0
1.94697                -1.568784       -36.70995        -42.07283        23.06415             -200               0             -200               0
1.95455                -1.623781       -37.16159        -41.87709          17.677             -200               0             -200               0
1.96212                 -1.68081       -37.62038        -41.68699        12.27913             -200               0             -200               0
1.9697                 -1.739966       -38.08654        -41.50247        6.871305             -200               0             -200               0
1.97727                -1.801349       -38.56029        -41.32346        1.454214             -200               0             -200               0
1.98485                -1.865069       -39.04185        -41.14989       -3.971468             -200               0             -200               0
1.99242                -1.931248       -39.53144        -40.98169       -9.405113             -200               0             -200               0
2                      -2.000015       -40.02929        -40.81882       -14.84612             -200               0             -200               0
2.00758                -2.071513       -40.53559        -40.66121       -20.29393             -200               0             -200               0
2.01515                -2.145896       -41.05054         -40.5088       -25.74799             -200               0             -200               0
2.02273                -2.223328       -41.57432        -40.36153        -31.2078             -200               0             -200               0
2.0303                  -2.30399       -42.10707        -40.21937       -36.67287             -200               0             -200               0
2.03788                -2.388072       -42.64888        -40.08224       -42.14274             -200               0             -200               0
2.04545                -2.475783       -43.19986        -39.95011       -47.61695             -200               0             -200               0
2.05303                -2.567342       -43.76001        -39.82292       -53.09509             -200               0             -200               0
2.06061                -2.662984        -44.3293        -39.70064       -58.57675             -200               0             -200               0
2.06818                -2.762961       -44.90765        -39.58321       -64.06153             -200               0             -200               0
2.07576                 -2.86754        -45.4949         -39.4706       -69.54906             -200               0             -200               0
2.08333                -2.977006       -46.09081        -39.36276       -75.03898             -200               0             -200               0
2.09091                -3.091657       -46.69507        -39.25966       -80.53093             -200               0             -200               0
2.09848                -3.211813       -47.30727        -39.16126       -86.02459             -200               0             -200               0
2.10606                -3.337812       -47.92689        -39.06751       -91.51962             -200               0             -200               0
2.11364                -3.470009        -48.5533        -38.97841       -97.01571             -200               0             -200               0
2.12121                 -3.60878       -49.18576         -38.8939       -102.5125             -200               0             -200               0
2.12879                -3.754524       -49.82338        -38.81395       -108.0098             -200               0             -200               0
2.13636                -3.907661       -50.46513        -38.73855       -113.5073             -200               0             -200               0
2.14394                -4.068638       -51.10982        -38.66765       -119.0046             -200               0             -200               0
2.15152                -4.237923       -51.75606        -38.60124       -124.5015             -200               0             -200               0
2.15909                -4.416017       -52.40231        -38.53929       -129.9978             -200               0             -200               0
2.16667                 -4.60345       -53.04676        -38.48178        -135.493             -200               0             -200               0
2.17424                -4.800783       -53.68739        -38.42868       -140.9871             -200               0             -200               0
2.18182                -5.008616       -54.32187        -38.37997       -146.4797             -200               0             -200               0
2.18939                -5.227589       -54.94758        -38.33563       -151.9706             -200               0             -200               0
2.19697                -5.458387       -55.56154        -38.29565       -157.4595             -200               0             -200               0
2.20455                 -5.70174       -56.16036        -38.26001       -162.9461             -200               0             -200               0
2.21212                -5.958438       -56.74015        -38.22869       -168.4303             -200               0             -200               0
2.2197                 -6.229329       -57.29648        -38.20168       -173.9117             -200               0             -200               0
2.22727                -6.515329        -57.8243        -38.17896       -179.3901             -200               0             -200               0
2.23485                -6.817429       -58.31773        -38.16052        175.1347             -200               0             -200               0
2.24242                -7.136703          -58.77        -38.14635         169.663             -200               0             -200               0
2.25                   -7.474318        -59.1732        -38.13644         164.195             -200               0             -200               0
2.25758                -7.831539       -59.51811        -38.13078        158.7311             -200               0             -200               0
2.26515                -8.209742       -59.79384        -38.12935        153.2713             -200               0             -200               0
2.27273                -8.610414       -59.98746        -38.13216        147.8161             -200               0             -200               0
2.2803                 -9.035163       -60.08356         -38.1392        142.3656             -200               0             -200               0
2.28788                -9.485708       -60.06355        -38.15046        136.9201             -200               0             -200               0
2.29545                -9.963861       -59.90494        -38.16593        131.4799             -200               0             -200               0
2.30303                -10.47149       -59.58021        -38.18562        126.0453             -200               0             -200               0
2.31061                -11.01045       -59.05554        -38.20952        120.6164             -200               0             -200               0
2.31818                -11.58243       -58.28907        -38.23762        115.1937             -200               0             -200               0
2.32576                -12.18872        -57.2287        -38.26993        109.7773             -200               0             -200               0
2.33333                -12.82983       -55.80962        -38.30644        104.3675             -200               0             -200               0
2.34091                -13.50478       -53.95122        -38.34716        98.96467             -200               0             -200               0
2.34848                -14.21005       -51.55454        -38.39209        93.56908             -200               0             -200               0
2.35606                -14.93785       -48.50108        -38.44123        88.18102             -200               0             -200               0
2.36364                -15.67363       -44.65619        -38.49457        82.80079             -200               0             -200               0
2.37121                -16.39289       -39.88251        -38.55213        77.42873             -200               0             -200               0
2.37879                -17.05789       -34.07164        -38.61391        72.06515             -200               0             -200               0
2.38636                -17.61692       -27.20056        -38.67991        66.71039             -200               0             -200               0
2.39394                -18.01002       -19.40423        -38.75013        61.36479             -200               0             -200               0
2.40152                -18.18434       -11.02274        -38.82459        56.02869             -200               0             -200               0
2.40909                -18.11476       -2.561016        -38.90328        50.70248             -200               0             -200               0
2.41667                -17.81574        5.452181        -38.98622        45.38651             -200               0             -200               0
2.42424                 -17.3343        12.62161         -39.0734        40.08116             -200               0             -200               0
2.43182                -16.73031        18.75692        -39.16485        34.78684             -200               0             -200               0
2.43939                -16.05873        23.84419        -39.26055        29.50396             -200               0             -200               0
2.44697                -15.36125        27.97458        -39.36053        24.23294             -200               0             -200               0
2.45455                -14.66578        31.28148        -39.46479         18.9742             -200               0             -200               0
2.46212                -13.98926        33.90216        -39.57333         13.7282             -200               0             -200               0
2.4697                 -13.34101        35.96019        -39.68616        8.495418             -200               0             -200               0
2.47727                -12.72551        37.55986         -39.8033        3.276319             -200               0             -200               0
2.48485                -12.14428        38.78653        -39.92474       -1.928594             -200               0             -200               0