! TOUCHSTONE file generated by CST MICROWAVE STUDIO
! Date and time: Tue Mar 18 20:31:48 2025
! Project name: hairline.cst
! Parameters = {B=12.5; D=160; F=15; Feed=2.85625; Fracture=1; L=100; M=50; R=0.384908; S=1.5; Theta=180; length=57.125; wave=114.25}
! Header version: 2024
! Port assignment regex: !\s*Touchstone port\s*([0-9]+)\s*=\s*(CST MWS port|CST DES external port|CST DES block port)\s*(.+)\s* \(\"(.*)\"\)(\s*mode\s*([0-9]+))?.*
! Touchstone port assignment:
! Touchstone port 1 = CST MWS port 1 ("")
! Touchstone port 2 = CST MWS port 2 ("")
# GHz S DB R 50
1                    -0.02008238       -9.726773        -68.36473        161.9061             -200               0             -200               0
1.0066               -0.02085824       -9.814048        -68.29767        156.3372             -200               0             -200               0
1.0132               -0.02165229       -9.901803        -68.26082        150.8623             -200               0             -200               0
1.0198               -0.02246393        -9.99005         -68.2544        145.4888             -200               0             -200               0
1.0264               -0.02329039        -10.0788        -68.27876        140.2259             -200               0             -200               0
1.033                -0.02413036       -10.16807        -68.33437        135.0849             -200               0             -200               0
1.0396               -0.02498291       -10.25789        -68.42178        130.0795             -200               0             -200               0
1.0462               -0.02584659       -10.34827        -68.54163        125.2265             -200               0             -200               0
1.05281              -0.02672041       -10.43923        -68.69455        120.5461             -200               0             -200               0
1.05941              -0.02760483        -10.5308        -68.88114         116.063             -200               0             -200               0
1.06601              -0.02849864       -10.62302        -69.10182        111.8072             -200               0             -200               0
1.07261              -0.02940281        -10.7159         -69.3567        107.8149             -200               0             -200               0
1.07921              -0.03031926       -10.80947        -69.64528        104.1301             -200               0             -200               0
1.08581              -0.03124835       -10.90375         -69.9661        100.8057             -200               0             -200               0
1.09241              -0.03219302       -10.99878        -70.31613        97.90439             -200               0             -200               0
1.09901              -0.03315475       -11.09458        -70.68997        95.49889             -200               0             -200               0
1.10561              -0.03413648       -11.19117         -71.0787        93.67023             -200               0             -200               0
1.11221              -0.03514138       -11.28857        -71.46845        92.50212             -200               0             -200               0
1.11881              -0.03617203       -11.38679        -71.83896        92.06894             -200               0             -200               0
1.12541              -0.03723266       -11.48586        -72.16259        92.41487             -200               0             -200               0
1.13201              -0.03832765       -11.58578        -72.40518        93.52396             -200               0             -200               0
1.13861               -0.0394572       -11.68656        -72.52993        95.28856             -200               0             -200               0
1.14521              -0.04062686       -11.78821        -72.50513         97.4934             -200               0             -200               0
1.15182              -0.04184118       -11.89073        -72.31336        99.83598             -200               0             -200               0
1.15842              -0.04310066       -11.99413        -71.95754        101.9869             -200               0             -200               0
1.16502              -0.04440895        -12.0984        -71.45985        103.6641             -200               0             -200               0
1.17162               -0.0457693       -12.20354        -70.85419        104.6831             -200               0             -200               0
1.17822              -0.04718123       -12.30954          -70.177        104.9658             -200               0             -200               0
1.18482              -0.04864901       -12.41641        -69.46061        104.5171             -200               0             -200               0
1.19142              -0.05017234       -12.52412        -68.73028        103.3931             -200               0             -200               0
1.19802              -0.05175131       -12.63269        -68.00408        101.6733             -200               0             -200               0
1.20462              -0.05338597       -12.74211        -67.29404        99.44219             -200               0             -200               0
1.21122              -0.05507743       -12.85237        -66.60768         96.7797             -200               0             -200               0
1.21782              -0.05682287       -12.96347        -65.94935        93.75678             -200               0             -200               0
1.22442              -0.05862223       -13.07543        -65.32125        90.43439             -200               0             -200               0
1.23102               -0.0604731       -13.18823        -64.72422        86.86399             -200               0             -200               0
1.23762              -0.06237445        -13.3019        -64.15821        83.08867             -200               0             -200               0
1.24422              -0.06432416       -13.41645        -63.62263        79.14441             -200               0             -200               0
1.25083              -0.06632093       -13.53189        -63.11662        75.06132             -200               0             -200               0
1.25743               -0.0683612       -13.64825        -62.63912        70.86471             -200               0             -200               0
1.26403              -0.07044539       -13.76555        -62.18903        66.57599             -200               0             -200               0
1.27063              -0.07257018       -13.88382        -61.76524        62.21343             -200               0             -200               0
1.27723              -0.07473662        -14.0031        -61.36664        57.79274             -200               0             -200               0
1.28383              -0.07694209       -14.12342        -60.99219         53.3276             -200               0             -200               0
1.29043              -0.07918798       -14.24482        -60.64087        48.83003             -200               0             -200               0
1.29703              -0.08147333       -14.36735        -60.31174        44.31071             -200               0             -200               0
1.30363              -0.08380086       -14.49105         -60.0039         39.7793             -200               0             -200               0
1.31023              -0.08617114       -14.61596         -59.7165        35.24458             -200               0             -200               0
1.31683              -0.08858729       -14.74213        -59.44872        30.71468             -200               0             -200               0
1.32343              -0.09105234       -14.86962         -59.1998         26.1972             -200               0             -200               0
1.33003              -0.09357131       -14.99846        -58.96897        21.69934             -200               0             -200               0
1.33663              -0.09614756       -15.12869        -58.75551          17.228             -200               0             -200               0
1.34323              -0.09878767       -15.26036        -58.55869        12.78988             -200               0             -200               0
1.34984               -0.1014962       -15.39351        -58.37779        8.391492             -200               0             -200               0
1.35644               -0.1042801       -15.52816        -58.21207        4.039258             -200               0             -200               0
1.36304               -0.1071464       -15.66436        -58.06074      -0.2604709             -200               0             -200               0
1.36964               -0.1101016       -15.80213        -57.92302       -4.501393             -200               0             -200               0
1.37624               -0.1131533       -15.94149        -57.79805       -8.677255             -200               0             -200               0
1.38284               -0.1163084       -16.08247        -57.68491       -12.78186             -200               0             -200               0
1.38944               -0.1195737       -16.22507        -57.58259       -16.80912             -200               0             -200               0
1.39604                -0.122957       -16.36931        -57.49001       -20.75306             -200               0             -200               0
1.40264               -0.1264647       -16.51518        -57.40597       -24.60796             -200               0             -200               0
1.40924                -0.130103       -16.66271        -57.32916       -28.36845             -200               0             -200               0
1.41584               -0.1338776       -16.81189        -57.25813       -32.02961             -200               0             -200               0
1.42244               -0.1377945       -16.96271        -57.19129        -35.5872             -200               0             -200               0
1.42904               -0.1418584       -17.11517        -57.12692       -39.03781             -200               0             -200               0
1.43564               -0.1460735       -17.26928        -57.06316       -42.37916             -200               0             -200               0
1.44224               -0.1504434       -17.42503        -56.99801       -45.61026             -200               0             -200               0
1.44884               -0.1549703       -17.58241         -56.9294       -48.73179             -200               0             -200               0
1.45545               -0.1596569       -17.74143        -56.85517       -51.74625             -200               0             -200               0
1.46205               -0.1645054       -17.90209        -56.77313       -54.65824             -200               0             -200               0
1.46865                -0.169516        -18.0644        -56.68114       -57.47463             -200               0             -200               0
1.47525               -0.1746913       -18.22837        -56.57718       -60.20457             -200               0             -200               0
1.48185               -0.1800308       -18.39402        -56.45939       -62.85953             -200               0             -200               0
1.48845               -0.1855351       -18.56135        -56.32618       -65.45307             -200               0             -200               0
1.49505               -0.1912046       -18.73041         -56.1763       -68.00051             -200               0             -200               0
1.50165               -0.1970398       -18.90122         -56.0089       -70.51851             -200               0             -200               0
1.50825               -0.2030427       -19.07382        -55.82355        -73.0245             -200               0             -200               0
1.51485               -0.2092127       -19.24826        -55.62028       -75.53601             -200               0             -200               0
1.52145               -0.2155518       -19.42457        -55.39957        -78.0701             -200               0             -200               0
1.52805               -0.2220629       -19.60282        -55.16231       -80.64271             -200               0             -200               0
1.53465               -0.2287482       -19.78305        -54.90975       -83.26817             -200               0             -200               0
1.54125               -0.2356119       -19.96534        -54.64343       -85.95882             -200               0             -200               0
1.54785               -0.2426597       -20.14974        -54.36511       -88.72479             -200               0             -200               0
1.55446               -0.2498954       -20.33631        -54.07667       -91.57387             -200               0             -200               0
1.56106               -0.2573272       -20.52514        -53.78005       -94.51155             -200               0             -200               0
1.56766               -0.2649624       -20.71627         -53.4772       -97.54117             -200               0             -200               0
1.57426               -0.2728089       -20.90978        -53.16999       -100.6641             -200               0             -200               0
1.58086                -0.280878       -21.10574        -52.86021         -103.88             -200               0             -200               0
1.58746               -0.2891793       -21.30419         -52.5495       -107.1871             -200               0             -200               0
1.59406               -0.2977237       -21.50521        -52.23937       -110.5823             -200               0             -200               0
1.60066               -0.3065246       -21.70884        -51.93117       -114.0619             -200               0             -200               0
1.60726               -0.3155944       -21.91514        -51.62608       -117.6211             -200               0             -200               0
1.61386               -0.3249458       -22.12415        -51.32515       -121.2549             -200               0             -200               0
1.62046                -0.334593       -22.33591        -51.02926       -124.9577             -200               0             -200               0
1.62706               -0.3445494       -22.55045        -50.73917       -128.7239             -200               0             -200               0
1.63366               -0.3548281        -22.7678         -50.4555       -132.5477             -200               0             -200               0
1.64026               -0.3654444         -22.988        -50.17877       -136.4231             -200               0             -200               0
1.64686               -0.3764112       -23.21106        -49.90938       -140.3445             -200               0             -200               0
1.65347               -0.3877415       -23.43699        -49.64765        -144.306             -200               0             -200               0
1.66007                -0.399448       -23.66582         -49.3938       -148.3022             -200               0             -200               0
1.66667               -0.4115425       -23.89755          -49.148       -152.3274             -200               0             -200               0
1.67327               -0.4240369        -24.1322        -48.91033       -156.3765             -200               0             -200               0
1.67987               -0.4369412       -24.36978        -48.68079       -160.4442             -200               0             -200               0
1.68647               -0.4502666       -24.61031        -48.45938       -164.5255             -200               0             -200               0
1.69307               -0.4640224       -24.85379        -48.24598       -168.6155             -200               0             -200               0
1.69967               -0.4782181       -25.10026        -48.04046       -172.7097             -200               0             -200               0
1.70627               -0.4928613       -25.34974        -47.84263       -176.8034             -200               0             -200               0
1.71287               -0.5079605       -25.60227        -47.65226        179.1078             -200               0             -200               0
1.71947               -0.5235239       -25.85787        -47.46906        175.0279             -200               0             -200               0
1.72607               -0.5395587       -26.11661        -47.29271        170.9611             -200               0             -200               0
1.73267               -0.5560736       -26.37853        -47.12283        166.9113             -200               0             -200               0
1.73927               -0.5730759       -26.64371        -46.95901        162.8821             -200               0             -200               0
1.74587               -0.5905769       -26.91221        -46.80077        158.8769             -200               0             -200               0
1.75248               -0.6085852       -27.18414        -46.64762        154.8991             -200               0             -200               0
1.75908               -0.6271111       -27.45957        -46.49899        150.9516             -200               0             -200               0
1.76568               -0.6461684       -27.73862        -46.35428         147.037             -200               0             -200               0
1.77228               -0.6657693        -28.0214        -46.21284        143.1579             -200               0             -200               0
1.77888                -0.685929       -28.30803        -46.07398         139.316             -200               0             -200               0
1.78548               -0.7066676       -28.59864        -45.93695        135.5132             -200               0             -200               0
1.79208               -0.7280009       -28.89336        -45.80099        131.7504             -200               0             -200               0
1.79868               -0.7499542       -29.19233        -45.66529        128.0284             -200               0             -200               0
1.80528               -0.7725489       -29.49569        -45.52901        124.3472             -200               0             -200               0
1.81188               -0.7958124       -29.80358        -45.39132        120.7062             -200               0             -200               0
1.81848               -0.8197751       -30.11615        -45.25135        117.1044             -200               0             -200               0
1.82508               -0.8444664       -30.43354        -45.10827        113.5398             -200               0             -200               0
1.83168               -0.8699218       -30.75588        -44.96123        110.0099             -200               0             -200               0
1.83828               -0.8961761       -31.08331        -44.80946        106.5115             -200               0             -200               0
1.84488               -0.9232695       -31.41596        -44.65221        103.0407             -200               0             -200               0
1.85149               -0.9512426       -31.75395        -44.48881        99.59291             -200               0             -200               0
1.85809               -0.9801376       -32.09739        -44.31868        96.16304             -200               0             -200               0
1.86469                -1.009999       -32.44639        -44.14131        92.74543             -200               0             -200               0
1.87129                -1.040874       -32.80106        -43.95634        89.33403             -200               0             -200               0
1.87789                -1.072811       -33.16147        -43.76349         85.9225             -200               0             -200               0
1.88449                -1.105859       -33.52771        -43.56264        82.50433             -200               0             -200               0
1.89109                -1.140068       -33.89986        -43.35377        79.07295             -200               0             -200               0
1.89769                -1.175491       -34.27798        -43.13701        75.62189             -200               0             -200               0
1.90429                 -1.21218       -34.66213        -42.91259        72.14492             -200               0             -200               0
1.91089                -1.250188       -35.05238        -42.68086        68.63611             -200               0             -200               0
1.91749                -1.289572       -35.44876        -42.44229        65.08998             -200               0             -200               0
1.92409                -1.330386       -35.85135         -42.1974        61.50158             -200               0             -200               0
1.93069                -1.372688       -36.26018        -41.94681        57.86651             -200               0             -200               0
1.93729                -1.416534       -36.67531        -41.69118          54.181             -200               0             -200               0
1.94389                -1.461985       -37.09682        -41.43122         50.4419             -200               0             -200               0
1.9505                 -1.509102       -37.52474        -41.16767         46.6467             -200               0             -200               0
1.9571                 -1.557946       -37.95915        -40.90125        42.79351             -200               0             -200               0
1.9637                 -1.608585       -38.40015        -40.63271          38.881             -200               0             -200               0
1.9703                 -1.661085        -38.8478        -40.36276         34.9084             -200               0             -200               0
1.9769                  -1.71552       -39.30222        -40.09212        30.87543             -200               0             -200               0
1.9835                 -1.771964       -39.76352        -39.82144        26.78223             -200               0             -200               0
1.9901                 -1.830497       -40.23181        -39.55137        22.62934             -200               0             -200               0
1.9967                 -1.891205       -40.70724        -39.28249        18.41763             -200               0             -200               0
2.0033                  -1.95418       -41.18994        -39.01538        14.14826             -200               0             -200               0
2.0099                 -2.019519       -41.68008        -38.75053        9.822593             -200               0             -200               0
2.0165                  -2.08733       -42.17782        -38.48843        5.442189             -200               0             -200               0
2.0231                 -2.157725       -42.68331        -38.22949        1.008749             -200               0             -200               0
2.0297                  -2.23083       -43.19675        -37.97411       -3.475916             -200               0             -200               0
2.0363                 -2.306777       -43.71829        -37.72265       -8.009923             -200               0             -200               0
2.0429                 -2.385712       -44.24809        -37.47541       -12.59134             -200               0             -200               0
2.0495                 -2.467789       -44.78632        -37.23267        -17.2182             -200               0             -200               0
2.05611                -2.553179        -45.3331        -36.99469       -21.88856             -200               0             -200               0
2.06271                -2.642063       -45.88855        -36.76169       -26.60046             -200               0             -200               0
2.06931                -2.734636       -46.45276        -36.53385       -31.35197             -200               0             -200               0
2.07591                -2.831109       -47.02579        -36.31135        -36.1412             -200               0             -200               0
2.08251                 -2.93171       -47.60765        -36.09434       -40.96629             -200               0             -200               0
2.08911                -3.036679        -48.1983        -35.88294       -45.82545             -200               0             -200               0
2.09571                -3.146276       -48.79764        -35.67726       -50.71692             -200               0             -200               0
2.10231                -3.260778       -49.40552         -35.4774       -55.63901             -200               0             -200               0
2.10891                 -3.38048        -50.0217        -35.28344       -60.59007             -200               0             -200               0
2.11551                -3.505696       -50.64586        -35.09544       -65.56854             -200               0             -200               0
2.12211                -3.636759       -51.27759        -34.91345       -70.57287             -200               0             -200               0
2.12871                -3.774026       -51.91637        -34.73754       -75.60162             -200               0             -200               0
2.13531                -3.917875       -52.56156        -34.56772       -80.65337             -200               0             -200               0
2.14191                -4.068704       -53.21241        -34.40404       -85.72675             -200               0             -200               0
2.14851                -4.226939       -53.86801        -34.24652       -90.82048             -200               0             -200               0
2.15512                -4.393029        -54.5273        -34.09517        -95.9333             -200               0             -200               0
2.16172                -4.567454       -55.18904           -33.95        -101.064             -200               0             -200               0
2.16832                -4.750721       -55.85183        -33.81104       -106.2115             -200               0             -200               0
2.17492                -4.943373       -56.51401        -33.67827       -111.3745             -200               0             -200               0
2.18152                -5.145983       -57.17371        -33.55171       -116.5521             -200               0             -200               0
2.18812                -5.359167       -57.82879        -33.43135       -121.7432             -200               0             -200               0
2.19472                -5.583582       -58.47682        -33.31719       -126.9469             -200               0             -200               0
2.20132                -5.819931       -59.11499        -33.20924       -132.1621             -200               0             -200               0
2.20792                -6.068969       -59.74014        -33.10747       -137.3879             -200               0             -200               0
2.21452                -6.331511       -60.34864         -33.0119       -142.6235             -200               0             -200               0
2.22112                -6.608432       -60.93631         -32.9225       -147.8679             -200               0             -200               0
2.22772                -6.900685       -61.49838        -32.83928       -153.1203             -200               0             -200               0
2.23432                -7.209298       -62.02934        -32.76222       -158.3799             -200               0             -200               0
2.24092                -7.535396        -62.5228        -32.69133       -163.6459             -200               0             -200               0
2.24752                -7.880204       -62.97133        -32.62659       -168.9175             -200               0             -200               0
2.25413                -8.245058       -63.36621        -32.56799       -174.1939             -200               0             -200               0
2.26073                -8.631423       -63.69717        -32.51554       -179.4744             -200               0             -200               0
2.26733                  -9.0409       -63.95201        -32.46922        175.2418             -200               0             -200               0
2.27393                -9.475243       -64.11615        -32.42902        169.9553             -200               0             -200               0
2.28053                -9.936357       -64.17196        -32.39496         164.667             -200               0             -200               0
2.28713                -10.42631       -64.09805        -32.36701        159.3775             -200               0             -200               0
2.29373                -10.94729       -63.86814        -32.34518        154.0875             -200               0             -200               0