! TOUCHSTONE file generated by CST MICROWAVE STUDIO
! Date and time: Tue Mar 18 20:31:51 2025
! Project name: hairline.cst
! Parameters = {B=12.5; D=160; F=25; Feed=2.85625; Fracture=2; L=100; M=50; R=0.384908; S=1.5; Theta=180; length=57.125; wave=114.25}
! Header version: 2024
! Port assignment regex: !\s*Touchstone port\s*([0-9]+)\s*=\s*(CST MWS port|CST DES external port|CST DES block port)\s*(.+)\s* \(\"(.*)\"\)(\s*mode\s*([0-9]+))?.*
! Touchstone port assignment:
! Touchstone port 1 = CST MWS port 1 ("")
! Touchstone port 2 = CST MWS port 2 ("")
# GHz S DB R 50
1                     -0.0193586       -10.00893        -70.64981        117.1815             -200               0             -200               0
1.0076               -0.02034887       -10.11138        -70.85297          112.05             -200               0             -200               0
1.01521              -0.02135013       -10.21434        -71.08675        107.0887             -200               0             -200               0
1.02281              -0.02235629       -10.31785         -71.3525        102.3222             -200               0             -200               0
1.03042              -0.02336121       -10.42196        -71.65148        97.78094             -200               0             -200               0
1.03802              -0.02436199        -10.5267        -71.98476        93.50265             -200               0             -200               0
1.04563              -0.02535409       -10.63212        -72.35296        89.53398             -200               0             -200               0
1.05323              -0.02633429       -10.73829        -72.75587        85.93256             -200               0             -200               0
1.06084              -0.02730233       -10.84527        -73.19186        82.76908             -200               0             -200               0
1.06844              -0.02825734        -10.9531        -73.65693        80.12894             -200               0             -200               0
1.07605              -0.02919772       -11.06187        -74.14333        78.11235             -200               0             -200               0
1.08365              -0.03012817       -11.17162        -74.63759        76.83048             -200               0             -200               0
1.09125               -0.0310496       -11.28244         -75.1181         76.3937             -200               0             -200               0
1.09886              -0.03196616       -11.39437        -75.55293        76.88658             -200               0             -200               0
1.10646              -0.03288391       -11.50748         -75.8994        78.32577             -200               0             -200               0
1.11407              -0.03380815       -11.62183        -76.10828        80.60731             -200               0             -200               0
1.12167               -0.0347458       -11.73746        -76.13463        83.46984             -200               0             -200               0
1.12928              -0.03570371       -11.85443        -75.95269        86.51459             -200               0             -200               0
1.13688              -0.03669175       -11.97276         -75.5666         89.2979             -200               0             -200               0
1.14449              -0.03771827        -12.0925        -75.00847        91.45119             -200               0             -200               0
1.15209              -0.03879288       -12.21367        -74.32572        92.75607             -200               0             -200               0
1.1597               -0.03992172       -12.33629        -73.56651        93.14573             -200               0             -200               0
1.1673               -0.04111753       -12.46037        -72.77074        92.66015             -200               0             -200               0
1.1749               -0.04238746       -12.58592        -71.96737        91.39457             -200               0             -200               0
1.18251              -0.04374087       -12.71293         -71.1755         89.4619             -200               0             -200               0
1.19011              -0.04518485       -12.84139        -70.40677        86.97175             -200               0             -200               0
1.19772              -0.04672772        -12.9713        -69.66767        84.02128             -200               0             -200               0
1.20532               -0.0483747       -13.10263        -68.96134        80.69274             -200               0             -200               0
1.21293              -0.05013191       -13.23537        -68.28887        77.05408             -200               0             -200               0
1.22053              -0.05200424       -13.36948        -67.65007        73.16089             -200               0             -200               0
1.22814              -0.05399535       -13.50496        -67.04407        69.05843             -200               0             -200               0
1.23574              -0.05610708       -13.64176        -66.46959        64.78364             -200               0             -200               0
1.24335              -0.05834098       -13.77987        -65.92523        60.36679             -200               0             -200               0
1.25095              -0.06069735       -13.91927        -65.40949        55.83282             -200               0             -200               0
1.25856              -0.06317582       -14.05994        -64.92092        51.20244             -200               0             -200               0
1.26616              -0.06577482       -14.20186        -64.45814          46.493             -200               0             -200               0
1.27376              -0.06849161       -14.34503        -64.01983        41.71917             -200               0             -200               0
1.28137              -0.07132306       -14.48945         -63.6048        36.89344             -200               0             -200               0
1.28897              -0.07426677       -14.63513        -63.21192        32.02662             -200               0             -200               0
1.29658              -0.07731815       -14.78207        -62.84016        27.12811             -200               0             -200               0
1.30418              -0.08047354        -14.9303        -62.48859        22.20619             -200               0             -200               0
1.31179              -0.08372854       -15.07986        -62.15634        17.26829             -200               0             -200               0
1.31939               -0.0870809       -15.23077        -61.84261        12.32109             -200               0             -200               0
1.327                -0.09052648        -15.3831        -61.54669        7.370724             -200               0             -200               0
1.3346               -0.09406288       -15.53689        -61.26789        2.422875             -200               0             -200               0
1.34221              -0.09768817        -15.6922         -61.0056       -2.517104             -200               0             -200               0
1.34981                -0.101403       -15.84912        -60.75923       -7.444119             -200               0             -200               0
1.35741               -0.1052069        -16.0077        -60.52823       -12.35326             -200               0             -200               0
1.36502                -0.109101       -16.16804        -60.31209       -17.23973             -200               0             -200               0
1.37262               -0.1130896       -16.33021        -60.11029       -22.09879             -200               0             -200               0
1.38023               -0.1171767        -16.4943        -59.92236       -26.92572             -200               0             -200               0
1.38783               -0.1213679       -16.66039         -59.7478       -31.71577             -200               0             -200               0
1.39544               -0.1256721       -16.82858        -59.58614       -36.46414             -200               0             -200               0
1.40304               -0.1300968       -16.99893        -59.43686       -41.16593             -200               0             -200               0
1.41065               -0.1346526       -17.17154        -59.29945       -45.81611             -200               0             -200               0
1.41825               -0.1393519       -17.34649        -59.17334       -50.40953             -200               0             -200               0
1.42586               -0.1442074       -17.52383        -59.05795       -54.94093             -200               0             -200               0
1.43346               -0.1492325       -17.70363        -58.95262       -59.40487             -200               0             -200               0
1.44106               -0.1544428       -17.88595        -58.85662       -63.79582             -200               0             -200               0
1.44867               -0.1598524       -18.07083        -58.76915       -68.10814             -200               0             -200               0
1.45627               -0.1654788       -18.25832        -58.68931       -72.33617             -200               0             -200               0
1.46388               -0.1713374       -18.44844        -58.61608       -76.47427             -200               0             -200               0
1.47148               -0.1774458       -18.64122        -58.54831       -80.51693             -200               0             -200               0
1.47909               -0.1838183       -18.83666        -58.48471       -84.45889             -200               0             -200               0
1.48669               -0.1904723       -19.03477        -58.42383       -88.29533             -200               0             -200               0
1.4943                -0.1974224       -19.23554        -58.36406       -92.02206             -200               0             -200               0
1.5019                -0.2046841       -19.43896        -58.30361       -95.63575             -200               0             -200               0
1.50951               -0.2122695       -19.64502        -58.24052       -99.13423             -200               0             -200               0
1.51711               -0.2201931       -19.85368        -58.17269       -102.5168             -200               0             -200               0
1.52471               -0.2284646       -20.06493        -58.09787       -105.7844             -200               0             -200               0
1.53232               -0.2370954       -20.27873        -58.01373       -108.9404             -200               0             -200               0
1.53992                -0.246094       -20.49506        -57.91789       -111.9901             -200               0             -200               0
1.54753               -0.2554674       -20.71389        -57.80802       -114.9417             -200               0             -200               0
1.55513               -0.2652232       -20.93518        -57.68188       -117.8059             -200               0             -200               0
1.56274               -0.2753657       -21.15893        -57.53747       -120.5963             -200               0             -200               0
1.57034               -0.2858976       -21.38511        -57.37306       -123.3285             -200               0             -200               0
1.57795                -0.296824       -21.61371        -57.18733       -126.0204             -200               0             -200               0
1.58555                -0.308145       -21.84474         -56.9794       -128.6914             -200               0             -200               0
1.59316               -0.3198625        -22.0782         -56.7489       -131.3617             -200               0             -200               0
1.60076               -0.3319781       -22.31412        -56.49601       -134.0513             -200               0             -200               0
1.60837               -0.3444919       -22.55253        -56.22138       -136.7797             -200               0             -200               0
1.61597               -0.3574034       -22.79347        -55.92613       -139.5649             -200               0             -200               0
1.62357               -0.3707163         -23.037         -55.6118       -142.4231             -200               0             -200               0
1.63118               -0.3844296       -23.28318        -55.28021       -145.3678             -200               0             -200               0
1.63878               -0.3985471        -23.5321        -54.93339       -148.4101             -200               0             -200               0
1.64639               -0.4130726       -23.78386        -54.57349       -151.5585             -200               0             -200               0
1.65399               -0.4280106       -24.03855        -54.20272       -154.8188             -200               0             -200               0
1.6616                 -0.443367        -24.2963        -53.82323       -158.1944             -200               0             -200               0
1.6692                -0.4591513       -24.55722        -53.43707       -161.6868             -200               0             -200               0
1.67681               -0.4753754       -24.82146        -53.04618       -165.2956             -200               0             -200               0
1.68441               -0.4920496       -25.08914        -52.65232       -169.0189             -200               0             -200               0
1.69202               -0.5091898       -25.36041        -52.25708       -172.8537             -200               0             -200               0
1.69962               -0.5268141       -25.63542        -51.86188       -176.7963             -200               0             -200               0
1.70722                -0.544943       -25.91432        -51.46796        179.1579             -200               0             -200               0
1.71483               -0.5635989       -26.19725        -51.07639        175.0137             -200               0             -200               0
1.72243                -0.582807       -26.48436        -50.68809        170.7761             -200               0             -200               0
1.73004               -0.6025949        -26.7758        -50.30383        166.4503             -200               0             -200               0
1.73764               -0.6229922        -27.0717        -49.92427        162.0415             -200               0             -200               0
1.74525               -0.6440306       -27.37219        -49.54993        157.5547             -200               0             -200               0
1.75285               -0.6657461       -27.67739        -49.18127        152.9948             -200               0             -200               0
1.76046               -0.6881737       -27.98742        -48.81864        148.3665             -200               0             -200               0
1.76806                -0.711351       -28.30238        -48.46232        143.6742             -200               0             -200               0
1.77567               -0.7353171       -28.62236        -48.11252        138.9223             -200               0             -200               0
1.78327               -0.7601128       -28.94747        -47.76941        134.1147             -200               0             -200               0
1.79087               -0.7857789       -29.27776        -47.43311        129.2551             -200               0             -200               0
1.79848               -0.8123585        -29.6133         -47.1037        124.3471             -200               0             -200               0
1.80608               -0.8398938       -29.95415        -46.78122        119.3941             -200               0             -200               0
1.81369               -0.8684276       -30.30037        -46.46571        114.3989             -200               0             -200               0
1.82129               -0.8980043         -30.652        -46.15716        109.3646             -200               0             -200               0
1.8289                -0.9286667       -31.00907        -45.85556        104.2937             -200               0             -200               0
1.8365                -0.9604585       -31.37162        -45.56086        99.18885             -200               0             -200               0
1.84411               -0.9934244       -31.73969        -45.27303        94.05221             -200               0             -200               0
1.85171                -1.027608       -32.11332          -44.992        88.88598             -200               0             -200               0
1.85932                -1.063053       -32.49254        -44.71773        83.69215             -200               0             -200               0
1.86692                -1.099806        -32.8774        -44.45013        78.47258             -200               0             -200               0
1.87452                -1.137912       -33.26795        -44.18914          73.229             -200               0             -200               0
1.88213                -1.177416       -33.66425        -43.93469        67.96302             -200               0             -200               0
1.88973                -1.218366       -34.06638        -43.68669        62.67614             -200               0             -200               0
1.89734                -1.260812       -34.47442        -43.44506        57.36977             -200               0             -200               0
1.90494                -1.304807       -34.88846        -43.20973         52.0452             -200               0             -200               0
1.91255                -1.350402       -35.30863        -42.98061        46.70367             -200               0             -200               0
1.92015                -1.397657       -35.73505        -42.75763        41.34632             -200               0             -200               0
1.92776                -1.446632       -36.16786         -42.5407        35.97421             -200               0             -200               0
1.93536                -1.497393       -36.60723        -42.32976        30.58835             -200               0             -200               0
1.94297                -1.550014       -37.05334        -42.12471        25.18968             -200               0             -200               0
1.95057                -1.604569       -37.50636        -41.92549        19.77908             -200               0             -200               0
1.95817                -1.661144       -37.96651        -41.73202        14.35738             -200               0             -200               0
1.96578                -1.719828       -38.43401        -41.54424        8.925372             -200               0             -200               0
1.97338                -1.780724       -38.90906        -41.36206        3.483779             -200               0             -200               0
1.98099                -1.843937       -39.39189        -41.18543       -1.966695             -200               0             -200               0
1.98859                -1.909588       -39.88274        -41.01428       -7.425397             -200               0             -200               0
1.9962                 -1.977804       -40.38181        -40.84854        -12.8917             -200               0             -200               0
2.0038                 -2.048724       -40.88933        -40.68816       -18.36503             -200               0             -200               0
2.01141                  -2.1225        -41.4055        -40.53306       -23.84481             -200               0             -200               0
2.01901                -2.199298       -41.93048        -40.38321       -29.33051             -200               0             -200               0
2.02662                 -2.27929       -42.46445        -40.23853       -34.82164             -200               0             -200               0
2.03422                -2.362669       -43.00752        -40.09898       -40.31771             -200               0             -200               0
2.04183                -2.449637       -43.55978         -39.9645       -45.81826             -200               0             -200               0
2.04943                -2.540417       -44.12128        -39.83505       -51.32286             -200               0             -200               0
2.05703                -2.635237         -44.692        -39.71058       -56.83107             -200               0             -200               0
2.06464                -2.734349       -45.27186        -39.59104        -62.3425             -200               0             -200               0
2.07224                -2.838018       -45.86074        -39.47638       -67.85676             -200               0             -200               0
2.07985                -2.946526       -46.45842        -39.36657       -73.37348             -200               0             -200               0
2.08745                -3.060172       -47.06459        -39.26157        -78.8923             -200               0             -200               0
2.09506                -3.179273        -47.6789        -39.16134       -84.41287             -200               0             -200               0
2.10266                -3.304165       -48.30082        -39.06583       -89.93486             -200               0             -200               0
2.11027                -3.435203       -48.92978        -38.97502       -95.45794             -200               0             -200               0
2.11787                -3.572763       -49.56505        -38.88887       -100.9818             -200               0             -200               0
2.12548                 -3.71724       -50.20576        -38.80735       -106.5061             -200               0             -200               0
2.13308                -3.869054       -50.85093        -38.73043       -112.0306             -200               0             -200               0
2.14068                -4.028651       -51.49939        -38.65808        -117.555             -200               0             -200               0
2.14829                -4.196498       -52.14979        -38.59027        -123.079             -200               0             -200               0
2.15589                -4.373095       -52.80062        -38.52698       -128.6023             -200               0             -200               0
2.1635                 -4.558969       -53.45011        -38.46818       -134.1246             -200               0             -200               0
2.1711                 -4.754682       -54.09626        -38.41384       -139.6457             -200               0             -200               0
2.17871                -4.960831       -54.73682        -38.36396       -145.1654             -200               0             -200               0
2.18631                -5.178055       -55.36921         -38.3185       -150.6832             -200               0             -200               0
2.19392                -5.407033       -55.99049        -38.27744       -156.1991             -200               0             -200               0
2.20152                -5.648498       -56.59733        -38.24078       -161.7126             -200               0             -200               0
2.20913                -5.903233       -57.18593        -38.20848       -167.2237             -200               0             -200               0
2.21673                -6.172085       -57.75194        -38.18054       -172.7319             -200               0             -200               0
2.22433                -6.455963       -58.29037        -38.15694       -178.2371             -200               0             -200               0
2.23194                -6.755857       -58.79547        -38.13767        176.2609             -200               0             -200               0
2.23954                -7.072836        -59.2606        -38.12271        170.7626             -200               0             -200               0
2.24715                 -7.40806       -59.67802        -38.11206         165.268             -200               0             -200               0
2.25475                -7.762792       -60.03866        -38.10569        159.7774             -200               0             -200               0
2.26236                -8.138401       -60.33187        -38.10362        154.2912             -200               0             -200               0
2.26996                -8.536374         -60.545        -38.10582        148.8095             -200               0             -200               0
2.27757                -8.958316       -60.66296        -38.11229        143.3327             -200               0             -200               0
2.28517                -9.405948        -60.6676        -38.12302        137.8609             -200               0             -200               0
2.29278                 -9.88109       -60.53692          -38.138        132.3945             -200               0             -200               0
2.30038                -10.38563       -60.24406        -38.15724        126.9338             -200               0             -200               0
2.30798                -10.92147       -59.75599        -38.18073        121.4789             -200               0             -200               0
2.31559                -11.49034       -59.03183        -38.20847        116.0302             -200               0             -200               0
2.32319                -12.09367       -58.02073        -38.24045        110.5879             -200               0             -200               0
2.3308                 -12.73213       -56.65927        -38.27667        105.1524             -200               0             -200               0
2.3384                 -13.40503       -54.86852        -38.31713         99.7239             -200               0             -200               0
2.34601                -14.10929       -52.55122        -38.36184        94.30274             -200               0             -200               0
2.35361                -14.83782       -49.59015        -38.41079        88.88923             -200               0             -200               0
2.36122                -15.57708       -45.85072        -38.46399        83.48366             -200               0             -200               0
2.36882                -16.30385       -41.19265        -38.52143        78.08637             -200               0             -200               0
2.37643                -16.98189        -35.4992        -38.58313        72.69767             -200               0             -200               0
2.38403                -17.56051       -28.73144        -38.64908        67.31791             -200               0             -200               0
2.39163                -17.97934       -21.00173        -38.71929        61.94743             -200               0             -200               0
2.39924                -18.18282       -12.62889        -38.79376        56.58658             -200               0             -200               0
2.40684                -18.14115       -4.110613         -38.8725        51.23574             -200               0             -200               0
2.41445                -17.86436        4.011049        -38.95552        45.89527             -200               0             -200               0
2.42205                -17.39732        11.31484        -39.04281        40.56557             -200               0             -200               0
2.42966                -16.80032         17.5857         -39.1344        35.24703             -200               0             -200               0
2.43726                -16.13014        22.79438        -39.23027        29.94007             -200               0             -200               0
2.44487                -15.43046        27.02607        -39.33045        24.64511             -200               0             -200               0
2.45247                -14.73076          30.414        -39.43493        19.36259             -200               0             -200               0
2.46008                -14.04905        33.09797        -39.54372        14.09296             -200               0             -200               0
2.46768                -13.39533        35.20469        -39.65683        8.836693             -200               0             -200               0
2.47529                -12.77443        36.84151        -39.77426        3.594273             -200               0             -200               0
2.48289                -12.18807         38.0963        -39.89603       -1.633801             -200               0             -200               0
2.49049                -11.63612        39.03989        -40.02214       -6.847009             -200               0             -200               0