! TOUCHSTONE file generated by CST MICROWAVE STUDIO
! Date and time: Tue Mar 18 20:31:47 2025
! Project name: hairline.cst
! Parameters = {B=12.5; D=160; F=15; Feed=2.85625; Fracture=0.5; L=100; M=50; R=0.384908; S=1.5; Theta=180; length=57.125; wave=114.25}
! Header version: 2024
! Port assignment regex: !\s*Touchstone port\s*([0-9]+)\s*=\s*(CST MWS port|CST DES external port|CST DES block port)\s*(.+)\s* \(\"(.*)\"\)(\s*mode\s*([0-9]+))?.*
! Touchstone port assignment:
! Touchstone port 1 = CST MWS port 1 ("")
! Touchstone port 2 = CST MWS port 2 ("")
# GHz S DB R 50
1                    -0.01999794       -9.718572         -68.3809        162.1397             -200               0             -200               0
1.0066               -0.02077035       -9.805708        -68.31159        156.5676             -200               0             -200               0
1.0132               -0.02156212       -9.893321        -68.27244         151.089             -200               0             -200               0
1.0198               -0.02237108       -9.981425        -68.26364        145.7111             -200               0             -200               0
1.0264                -0.0231955       -10.07003        -68.28554         140.443             -200               0             -200               0
1.033                -0.02403306       -10.15915        -68.33858        135.2959             -200               0             -200               0
1.0396               -0.02488283       -10.24882        -68.42333        130.2832             -200               0             -200               0
1.0462               -0.02574499       -10.33904        -68.54038        125.4215             -200               0             -200               0
1.05281              -0.02661587       -10.42985        -68.69038        120.7307             -200               0             -200               0
1.05941              -0.02749858       -10.52126        -68.87391         116.235             -200               0             -200               0
1.06601              -0.02839038       -10.61331         -69.0914        111.9638             -200               0             -200               0
1.07261              -0.02929329       -10.70602        -69.34298         107.953             -200               0             -200               0
1.07921              -0.03020708       -10.79941        -69.62819        104.2455             -200               0             -200               0
1.08581              -0.03113432       -10.89352        -69.94564        100.8935             -200               0             -200               0
1.09241              -0.03207627       -10.98837        -70.29244         97.9584             -200               0             -200               0
1.09901              -0.03303499       -11.08398        -70.66339          95.512             -200               0             -200               0
1.10561              -0.03401507       -11.18037        -71.04991        93.63423             -200               0             -200               0
1.11221              -0.03501694       -11.27757        -71.43859        92.40826             -200               0             -200               0
1.11881              -0.03604488       -11.37559         -71.8098         91.9091             -200               0             -200               0
1.12541              -0.03710195       -11.47445        -72.13663        92.18361             -200               0             -200               0
1.13201              -0.03819258       -11.57416        -72.38555        93.22147             -200               0             -200               0
1.13861              -0.03931855       -11.67473        -72.52004        94.92361             -200               0             -200               0
1.14521               -0.0404844       -11.77616        -72.50788         97.0846             -200               0             -200               0
1.15182              -0.04169304       -11.87846        -72.33032        99.40943             -200               0             -200               0
1.15842               -0.0429471       -11.98163        -71.98853        101.5705             -200               0             -200               0
1.16502              -0.04425018       -12.08567        -71.50309        103.2813             -200               0             -200               0
1.17162              -0.04560395       -12.19058        -70.90701        104.3494             -200               0             -200               0
1.17822              -0.04701009       -12.29635        -70.23657        104.6881             -200               0             -200               0
1.18482               -0.0484708       -12.40297        -69.52439        104.2961             -200               0             -200               0
1.19142              -0.04998723       -12.51045        -68.79626        103.2256             -200               0             -200               0
1.19802              -0.05155849       -12.61877        -68.07077         101.554             -200               0             -200               0
1.20462              -0.05318671       -12.72794         -67.3604        99.36537             -200               0             -200               0
1.21122              -0.05486882       -12.83795          -66.673        96.73965             -200               0             -200               0
1.21782              -0.05660678        -12.9488        -66.01318        93.74833             -200               0             -200               0
1.22442              -0.05839734        -13.0605         -65.3833          90.453             -200               0             -200               0
1.23102              -0.06024066       -13.17305        -64.78432        86.90573             -200               0             -200               0
1.23762              -0.06213378       -13.28645        -64.21627        83.15016             -200               0             -200               0
1.24422              -0.06407605       -13.40073        -63.67862        79.22277             -200               0             -200               0
1.25083              -0.06606419        -13.5159        -63.17052        75.15408             -200               0             -200               0
1.25743              -0.06809661       -13.63199        -62.69096        70.96974             -200               0             -200               0
1.26403              -0.07017175         -13.749        -62.23884        66.69146             -200               0             -200               0
1.27063              -0.07229003       -13.86699        -61.81305        62.33772             -200               0             -200               0
1.27723              -0.07444724       -13.98597         -61.4125        57.92443             -200               0             -200               0
1.28383              -0.07664493       -14.10599        -61.03613        53.46542             -200               0             -200               0
1.29043              -0.07888192       -14.22709        -60.68294        48.97283             -200               0             -200               0
1.29703              -0.08115938        -14.3493        -60.35198        44.45746             -200               0             -200               0
1.30363               -0.0834775       -14.47268        -60.04235        39.92902             -200               0             -200               0
1.31023              -0.08583998       -14.59726         -59.7532        35.39636             -200               0             -200               0
1.31683              -0.08824775        -14.7231         -59.4837        30.86765             -200               0             -200               0
1.32343              -0.09070392       -14.85024         -59.2331        26.35053             -200               0             -200               0
1.33003              -0.09321269       -14.97871        -59.00064        21.85222             -200               0             -200               0
1.33663              -0.09577969       -15.10858        -58.78558        17.37964             -200               0             -200               0
1.34323              -0.09840874       -15.23988         -58.5872        12.93947             -200               0             -200               0
1.34984               -0.1011062       -15.37264        -58.40478        8.538233             -200               0             -200               0
1.35644               -0.1038776        -15.5069        -58.23759        4.182349             -200               0             -200               0
1.36304               -0.1067316        -15.6427        -58.08485      -0.1218471             -200               0             -200               0
1.36964                -0.109673       -15.78005        -57.94577       -4.368067             -200               0             -200               0
1.37624               -0.1127097         -15.919         -57.8195       -8.550071             -200               0             -200               0
1.38284               -0.1158492       -16.05954        -57.70514       -12.66168             -200               0             -200               0
1.38944               -0.1190984        -16.2017         -57.6017        -16.6968             -200               0             -200               0
1.39604               -0.1224647       -16.34549        -57.50809       -20.64947             -200               0             -200               0
1.40264               -0.1259539       -16.49092        -57.42315       -24.51397             -200               0             -200               0
1.40924               -0.1295733       -16.63798        -57.34557       -28.28489             -200               0             -200               0
1.41584               -0.1333279       -16.78669        -57.27393       -31.95729             -200               0             -200               0
1.42244                -0.137224       -16.93703        -57.20666       -35.52684             -200               0             -200               0
1.42904                -0.141266       -17.08901        -57.14205       -38.99008             -200               0             -200               0
1.43564                -0.145458       -17.24263        -57.07828       -42.34456             -200               0             -200               0
1.44224               -0.1498037       -17.39788        -57.01337       -45.58917             -200               0             -200               0
1.44884               -0.1543055       -17.55475        -56.94525       -48.72438             -200               0             -200               0
1.45545               -0.1589666       -17.71326        -56.87178       -51.75244             -200               0             -200               0
1.46205               -0.1637887        -17.8734        -56.79079       -54.67771             -200               0             -200               0
1.46865               -0.1687725       -18.03518        -56.70015       -57.50673             -200               0             -200               0
1.47525               -0.1739198       -18.19861        -56.59781       -60.24837             -200               0             -200               0
1.48185               -0.1792305       -18.36371         -56.4819       -62.91377             -200               0             -200               0
1.48845               -0.1847062       -18.53049        -56.35081       -65.51617             -200               0             -200               0
1.49505               -0.1903458       -18.69898        -56.20325       -68.07065             -200               0             -200               0
1.50165               -0.1961509       -18.86921        -56.03831       -70.59366             -200               0             -200               0
1.50825               -0.2021222       -19.04122        -55.85552       -73.10247             -200               0             -200               0
1.51485               -0.2082596       -19.21505        -55.65484       -75.61457             -200               0             -200               0
1.52145                -0.214567       -19.39074         -55.4367       -78.14703             -200               0             -200               0
1.52805               -0.2210439       -19.56836        -55.20194       -80.71588             -200               0             -200               0
1.53465               -0.2276944       -19.74794        -54.95175       -83.33562             -200               0             -200               0
1.54125               -0.2345229       -19.92957        -54.68765       -86.01882             -200               0             -200               0
1.54785                -0.241534       -20.11329        -54.41134       -88.77585             -200               0             -200               0
1.55446               -0.2487313       -20.29917        -54.12469       -91.61478             -200               0             -200               0
1.56106                -0.256123       -20.48727        -53.82964       -94.54138             -200               0             -200               0
1.56766               -0.2637166       -20.67768        -53.52812       -97.55926             -200               0             -200               0
1.57426               -0.2715205       -20.87043        -53.22201         -100.67             -200               0             -200               0
1.58086               -0.2795439       -21.06562         -52.9131       -103.8736             -200               0             -200               0
1.58746               -0.2877979       -21.26329        -52.60305       -107.1683             -200               0             -200               0
1.59406               -0.2962932        -21.4635        -52.29339       -110.5514             -200               0             -200               0
1.60066                -0.305042        -21.6663        -51.98547        -114.019             -200               0             -200               0
1.60726               -0.3140569       -21.87176         -51.6805       -117.5668             -200               0             -200               0
1.61386               -0.3233509        -22.0799        -51.37953       -121.1895             -200               0             -200               0
1.62046                -0.332938       -22.29078        -51.08349       -124.8819             -200               0             -200               0
1.62706               -0.3428318       -22.50442        -50.79312       -128.6382             -200               0             -200               0
1.63366               -0.3530454       -22.72086        -50.50908       -132.4527             -200               0             -200               0
1.64026               -0.3635923       -22.94013        -50.23188       -136.3195             -200               0             -200               0
1.64686               -0.3744874       -23.16224        -49.96197       -140.2329             -200               0             -200               0
1.65347               -0.3857424        -23.3872        -49.69965       -144.1871             -200               0             -200               0
1.66007               -0.3973697       -23.61505        -49.44516       -148.1766             -200               0             -200               0
1.66667               -0.4093828       -23.84578        -49.19868       -152.1958             -200               0             -200               0
1.67327               -0.4217916       -24.07942         -48.9603       -156.2395             -200               0             -200               0
1.67987               -0.4346078       -24.31596        -48.73004       -160.3024             -200               0             -200               0
1.68647               -0.4478422       -24.55545        -48.50787       -164.3796             -200               0             -200               0
1.69307               -0.4615037       -24.79787        -48.29373       -168.4662             -200               0             -200               0
1.69967               -0.4756003       -25.04326        -48.08746       -172.5574             -200               0             -200               0
1.70627               -0.4901422       -25.29164        -47.88889       -176.6488             -200               0             -200               0
1.71287               -0.5051365       -25.54304         -47.6978        179.2641             -200               0             -200               0
1.71947                -0.520591       -25.79751        -47.51389        175.1855             -200               0             -200               0
1.72607               -0.5365149       -26.05508        -47.33687        171.1194             -200               0             -200               0
1.73267               -0.5529148       -26.31582        -47.16635        167.0697             -200               0             -200               0
1.73927               -0.5697994       -26.57979        -47.00193        163.0402             -200               0             -200               0
1.74587               -0.5871777       -26.84707        -46.84314        159.0342             -200               0             -200               0
1.75248               -0.6050593       -27.11773         -46.6895        155.0551             -200               0             -200               0
1.75908               -0.6234546       -27.39188        -46.54044        151.1058             -200               0             -200               0
1.76568               -0.6423766       -27.66961        -46.39536        147.1892             -200               0             -200               0
1.77228               -0.6618366       -27.95104        -46.25364        143.3076             -200               0             -200               0
1.77888               -0.6818533       -28.23629        -46.11456         139.463             -200               0             -200               0
1.78548               -0.7024404       -28.52548        -45.97742        135.6572             -200               0             -200               0
1.79208               -0.7236186       -28.81875        -45.84144        131.8913             -200               0             -200               0
1.79868               -0.7454091       -29.11624        -45.70581         128.166             -200               0             -200               0
1.80528               -0.7678358       -29.41807        -45.56972        124.4814             -200               0             -200               0
1.81188               -0.7909249       -29.72441        -45.43232        120.8371             -200               0             -200               0
1.81848               -0.8147039       -30.03538        -45.29276        117.2321             -200               0             -200               0
1.82508               -0.8392059       -30.35113        -45.15018        113.6644             -200               0             -200               0
1.83168               -0.8644617       -30.67179        -45.00377        110.1319             -200               0             -200               0
1.83828               -0.8905082        -30.9975        -44.85271        106.6312             -200               0             -200               0
1.84488               -0.9173847       -31.32839        -44.69628        103.1585             -200               0             -200               0
1.85149               -0.9451306       -31.66459        -44.53379        99.70951             -200               0             -200               0
1.85809               -0.9737884       -32.00619        -44.36464        96.27905             -200               0             -200               0
1.86469                -1.003401       -32.35332        -44.18832        92.86158             -200               0             -200               0
1.87129                -1.034017       -32.70607        -44.00444        89.45111             -200               0             -200               0
1.87789                -1.065683       -33.06453        -43.81273        86.04134             -200               0             -200               0
1.88449                -1.098447       -33.42878        -43.61303        82.62578             -200               0             -200               0
1.89109                 -1.13236        -33.7989        -43.40532        79.19788             -200               0             -200               0
1.89769                -1.167473       -34.17496         -43.1897        75.75116             -200               0             -200               0
1.90429                 -1.20384       -34.55701        -42.96639        72.27936             -200               0             -200               0
1.91089                -1.241512       -34.94512        -42.73573        68.77651             -200               0             -200               0
1.91749                -1.280544       -35.33934        -42.49816        65.23709             -200               0             -200               0
1.92409                -1.320992       -35.73972        -42.25421        61.65606             -200               0             -200               0
1.93069                -1.362911       -36.14631        -42.00447        58.02897             -200               0             -200               0
1.93729                -1.406361       -36.55916        -41.74961        54.35196             -200               0             -200               0
1.94389                -1.451398       -36.97834        -41.49033         50.6218             -200               0             -200               0
1.9505                 -1.498082        -37.4039        -41.22735        46.83592             -200               0             -200               0
1.9571                 -1.546478       -37.83593        -40.96141        42.99231             -200               0             -200               0
1.9637                 -1.596649       -38.27447        -40.69324         39.0896             -200               0             -200               0
1.9703                 -1.648662       -38.71964        -40.42358        35.12694             -200               0             -200               0
1.9769                 -1.702589       -39.17152        -40.15312        31.10397             -200               0             -200               0
1.9835                 -1.758503       -39.63025        -39.88253        27.02079             -200               0             -200               0
1.9901                 -1.816485        -40.0959        -39.61246        22.87789             -200               0             -200               0
1.9967                 -1.876617       -40.56864        -39.34351        18.67609             -200               0             -200               0
2.0033                 -1.938991       -41.04861        -39.07623         14.4165             -200               0             -200               0
2.0099                 -2.003703       -41.53595        -38.81115        10.10047             -200               0             -200               0
2.0165                 -2.070856       -42.03082        -38.54874        5.729524             -200               0             -200               0
2.0231                 -2.140566       -42.53341        -38.28944        1.305347             -200               0             -200               0
2.0297                 -2.212951       -43.04386        -38.03364       -3.170266             -200               0             -200               0
2.0363                 -2.288144       -43.56235         -37.7817       -7.695446             -200               0             -200               0
2.0429                 -2.366287       -44.08904        -37.53393       -12.26827             -200               0             -200               0
2.0495                 -2.447534        -44.6241        -37.29063       -16.88678             -200               0             -200               0
2.05611                -2.532049       -45.16764        -37.05204       -21.54903             -200               0             -200               0
2.06271                -2.620013        -45.7198        -36.81838       -26.25305             -200               0             -200               0
2.06931                -2.711618       -46.28067        -36.58986       -30.99693             -200               0             -200               0
2.07591                -2.807072       -46.85029        -36.36665       -35.77876             -200               0             -200               0
2.08251                -2.906596       -47.42869         -36.1489       -40.59669             -200               0             -200               0
2.08911                -3.010428       -48.01584        -35.93674       -45.44892             -200               0             -200               0
2.09571                -3.118825       -48.61164        -35.73027       -50.33369             -200               0             -200               0
2.10231                -3.232059       -49.21596         -35.5296       -55.24929             -200               0             -200               0
2.10891                -3.350421       -49.82855        -35.33481       -60.19408             -200               0             -200               0
2.11551                -3.474216       -50.44913        -35.14596       -65.16648             -200               0             -200               0
2.12211                -3.603779       -51.07728        -34.96312       -70.16495             -200               0             -200               0
2.12871                -3.739455       -51.71249        -34.78633       -75.18802             -200               0             -200               0
2.13531                -3.881617       -52.35416        -34.61562       -80.23428             -200               0             -200               0
2.14191                -4.030659       -53.00154        -34.45104       -85.30236             -200               0             -200               0
2.14851                -4.186997       -53.65374         -34.2926       -90.39097             -200               0             -200               0
2.15512                -4.351075       -54.30973        -34.14033       -95.49883             -200               0             -200               0
2.16172                -4.523361       -54.96832        -33.99423       -100.6247             -200               0             -200               0
2.16832                -4.704358       -55.62809        -33.85432       -105.7676             -200               0             -200               0
2.17492                -4.894593       -56.28745        -33.72061       -110.9261             -200               0             -200               0
2.18152                -5.094632       -56.94457        -33.59308       -116.0994             -200               0             -200               0
2.18812                -5.305078       -57.59735        -33.47176       -121.2864             -200               0             -200               0
2.19472                -5.526571        -58.2434        -33.35662        -126.486             -200               0             -200               0
2.20132                -5.759802          -58.88        -33.24768       -131.6973             -200               0             -200               0
2.20792                -6.005506       -59.50403        -33.14492       -136.9193             -200               0             -200               0
2.21452                 -6.26448       -60.11195        -33.04834       -142.1513             -200               0             -200               0
2.22112                -6.537576        -60.6997        -32.95794       -147.3922             -200               0             -200               0
2.22772                 -6.82572       -61.26262         -32.8737       -152.6412             -200               0             -200               0
2.23432                -7.129915       -61.79536        -32.79562       -157.8976             -200               0             -200               0
2.24092                -7.451251       -62.29169        -32.72369       -163.1605             -200               0             -200               0
2.24752                -7.790912       -62.74442        -32.65791       -168.4291             -200               0             -200               0
2.25413                -8.150195        -63.1451        -32.59827       -173.7026             -200               0             -200               0
2.26073                -8.530512        -63.4838        -32.54475       -178.9803             -200               0             -200               0
2.26733                 -8.93341       -63.74879        -32.49737        175.7385             -200               0             -200               0
2.27393                -9.360576       -63.92602         -32.4561        170.4545             -200               0             -200               0
2.28053                -9.813843        -63.9986        -32.42095        165.1686             -200               0             -200               0
2.28713                 -10.2952       -63.94609        -32.39191        159.8814             -200               0             -200               0
2.29373                -10.80675       -63.74344        -32.36898        154.5935             -200               0             -200               0