! TOUCHSTONE file generated by CST MICROWAVE STUDIO
! Date and time: Tue Mar 18 20:31:48 2025
! Project name: hairline.cst
! Parameters = {B=12.5; D=160; F=15; Feed=2.85625; Fracture=2; L=100; M=50; R=0.384908; S=1.5; Theta=180; length=57.125; wave=114.25}
! Header version: 2024
! Port assignment regex: !\s*Touchstone port\s*([0-9]+)\s*=\s*(CST MWS port|CST DES external port|CST DES block port)\s*(.+)\s* \(\"(.*)\"\)(\s*mode\s*([0-9]+))?.*
! Touchstone port assignment:
! Touchstone port 1 = CST MWS port 1 ("")
! Touchstone port 2 = CST MWS port 2 ("")
# GHz S DB R 50
1                    -0.02010665       -9.986324        -68.39652        161.7266             -200               0             -200               0
1.00658              -0.02088059       -10.07503        -68.32837         156.195             -200               0             -200               0
1.01316              -0.02167347       -10.16421        -68.29013        150.7568             -200               0             -200               0
1.01974              -0.02248413       -10.25388        -68.28199        145.4194             -200               0             -200               0
1.02632              -0.02330978       -10.34405        -68.30428        140.1921             -200               0             -200               0
1.03289              -0.02414964       -10.43473        -68.35742        135.0861             -200               0             -200               0
1.03947              -0.02500126       -10.52596        -68.44193         130.115             -200               0             -200               0
1.04605              -0.02586369       -10.61774        -68.55838        125.2954             -200               0             -200               0
1.05263               -0.0267369        -10.7101        -68.70735        120.6473             -200               0             -200               0
1.05921              -0.02761982       -10.80306        -68.88936         116.195             -200               0             -200               0
1.06579              -0.02851287       -10.89666        -69.10475        111.9679             -200               0             -200               0
1.07237              -0.02941689       -10.99092        -69.35353        108.0014             -200               0             -200               0
1.07895              -0.03033227       -11.08586        -69.63512        104.3383             -200               0             -200               0
1.08553               -0.0312604       -11.18151        -69.94796          101.03             -200               0             -200               0
1.09211              -0.03220369        -11.2779        -70.28899        98.13705             -200               0             -200               0
1.09868              -0.03316404       -11.37505        -70.65282        95.72924             -200               0             -200               0
1.10526              -0.03414352       -11.47298        -71.03069        93.88396             -200               0             -200               0
1.11184              -0.03514565       -11.57171        -71.40916        92.68064             -200               0             -200               0
1.11842              -0.03617405       -11.67126        -71.76874         92.1894             -200               0             -200               0
1.125                -0.03723095       -11.77165        -72.08305        92.45158             -200               0             -200               0
1.13158              -0.03832058       -11.87288        -72.31962        93.45215             -200               0             -200               0
1.13816               -0.0394463       -11.97498        -72.44347        95.09059             -200               0             -200               0
1.14474               -0.0406106       -12.07793        -72.42412        97.16576             -200               0             -200               0
1.15132              -0.04181847       -12.18175        -72.24412        99.39325             -200               0             -200               0
1.15789               -0.0430714       -12.28644         -71.9049        101.4594             -200               0             -200               0
1.16447              -0.04437209         -12.392         -71.4262        103.0899             -200               0             -200               0
1.17105              -0.04572365       -12.49842        -70.83953        104.0993             -200               0             -200               0
1.17763              -0.04712832       -12.60571        -70.17964         104.402             -200               0             -200               0
1.18421              -0.04858726       -12.71384          -69.478         103.994             -200               0             -200               0
1.19079              -0.05010061       -12.82283         -68.7597        102.9233             -200               0             -200               0
1.19737              -0.05167002       -12.93267        -68.04297         101.263             -200               0             -200               0
1.20395               -0.0532951       -13.04335        -67.34021        99.09355             -200               0             -200               0
1.21053              -0.05497587       -13.15486        -66.65931        96.49226             -200               0             -200               0
1.21711              -0.05671066       -13.26722        -66.00497        93.52859             -200               0             -200               0
1.22368              -0.05849979       -13.38042        -65.37969        90.26275             -200               0             -200               0
1.23026              -0.06034041       -13.49447        -64.78453        86.74587             -200               0             -200               0
1.23684              -0.06223213       -13.60938        -64.21963        83.02097             -200               0             -200               0
1.24342              -0.06417126       -13.72515        -63.68456        79.12411             -200               0             -200               0
1.25                 -0.06615791       -13.84181        -63.17856        75.08555             -200               0             -200               0
1.25658              -0.06818923       -13.95938        -62.70067        70.93076             -200               0             -200               0
1.26316              -0.07026303       -14.07788        -62.24985        66.68134             -200               0             -200               0
1.26974              -0.07237954       -14.19734        -61.82503        62.35571             -200               0             -200               0
1.27632              -0.07453581       -14.31779        -61.42516        57.96974             -200               0             -200               0
1.28289              -0.07673225       -14.43927        -61.04923        53.53724             -200               0             -200               0
1.28947              -0.07896815       -14.56182        -60.69624        49.07033             -200               0             -200               0
1.29605              -0.08124377       -14.68548        -60.36527        44.57979             -200               0             -200               0
1.30263              -0.08356117        -14.8103        -60.05544        40.07534             -200               0             -200               0
1.30921              -0.08592098       -14.93631         -59.7659         35.5658             -200               0             -200               0
1.31579              -0.08832669       -15.06358        -59.49587        31.05934             -200               0             -200               0
1.32237              -0.09077943       -15.19212        -59.24457        26.56356             -200               0             -200               0
1.32895              -0.09328566       -15.32201        -59.01127        22.08567             -200               0             -200               0
1.33553              -0.09584763       -15.45327        -58.79524        17.63255             -200               0             -200               0
1.34211              -0.09847103       -15.58595        -58.59576        13.21084             -200               0             -200               0
1.34868               -0.1011633        -15.7201        -58.41213         8.82702             -200               0             -200               0
1.35526               -0.1039287       -15.85573        -58.24361        4.487452             -200               0             -200               0
1.36184               -0.1067741       -15.99289        -58.08945       0.1984176             -200               0             -200               0
1.36842               -0.1097068       -16.13161        -57.94886       -4.033867             -200               0             -200               0
1.375                  -0.112733        -16.2719        -57.82101       -8.203234             -200               0             -200               0
1.38158                -0.115861       -16.41379          -57.705       -12.30358             -200               0             -200               0
1.38816               -0.1190976       -16.55729        -57.59986        -16.3289             -200               0             -200               0
1.39474               -0.1224497       -16.70242        -57.50454        -20.2733             -200               0             -200               0
1.40132               -0.1259241       -16.84917        -57.41787       -24.13115             -200               0             -200               0
1.40789               -0.1295262       -16.99756        -57.33858       -27.89711             -200               0             -200               0
1.41447                -0.133263       -17.14759        -57.26528       -31.56628             -200               0             -200               0
1.42105               -0.1371406       -17.29926        -57.19644       -35.13439             -200               0             -200               0
1.42763               -0.1411627       -17.45255        -57.13039       -38.59795             -200               0             -200               0
1.43421               -0.1453338       -17.60748        -57.06533       -41.95451             -200               0             -200               0
1.44079               -0.1496579       -17.76405        -56.99934       -45.20288             -200               0             -200               0
1.44737               -0.1541383       -17.92223         -56.9304       -48.34337             -200               0             -200               0
1.45395               -0.1587768       -18.08205         -56.8564       -51.37807             -200               0             -200               0
1.46053               -0.1635759       -18.24349        -56.77524       -54.31104             -200               0             -200               0
1.46711                -0.168536       -18.40657        -56.68478       -57.14851             -200               0             -200               0
1.47368               -0.1736595       -18.57129        -56.58304       -59.89891             -200               0             -200               0
1.48026               -0.1789457       -18.73767        -56.46815       -62.57296             -200               0             -200               0
1.48684               -0.1843964       -18.90573        -56.33851        -65.1834             -200               0             -200               0
1.49342               -0.1900115       -19.07549        -56.19279       -67.74483             -200               0             -200               0
1.5                   -0.1957918       -19.24699        -56.03008        -70.2732             -200               0             -200               0
1.50658               -0.2017376       -19.42025        -55.84984       -72.78536             -200               0             -200               0
1.51316               -0.2078501       -19.59531        -55.65199       -75.29846             -200               0             -200               0
1.51974               -0.2141302       -19.77223        -55.43689       -77.82928             -200               0             -200               0
1.52632               -0.2205809       -19.95106        -55.20529       -80.39371             -200               0             -200               0
1.53289               -0.2272047       -20.13184        -54.95831       -83.00622             -200               0             -200               0
1.53947               -0.2340044       -20.31464         -54.6974       -85.67942             -200               0             -200               0
1.54605               -0.2409853       -20.49952         -54.4242       -88.42384             -200               0             -200               0
1.55263               -0.2481526       -20.68655        -54.14051       -91.24776             -200               0             -200               0
1.55921               -0.2555124       -20.87578        -53.84823       -94.15724             -200               0             -200               0
1.56579               -0.2630713       -21.06728        -53.54925       -97.15616             -200               0             -200               0
1.57237               -0.2708389       -21.26113        -53.24543       -100.2465             -200               0             -200               0
1.57895               -0.2788242       -21.45738        -52.93854       -103.4284             -200               0             -200               0
1.58553               -0.2870369        -21.6561        -52.63024       -106.7005             -200               0             -200               0
1.59211               -0.2954876       -21.85734        -52.32204       -110.0604             -200               0             -200               0
1.59868               -0.3041899       -22.06116        -52.01532       -113.5045             -200               0             -200               0
1.60526                -0.313155        -22.2676        -51.71129       -117.0285             -200               0             -200               0
1.61184               -0.3223971       -22.47673        -51.41102       -120.6276             -200               0             -200               0
1.61842                -0.331927       -22.68857        -51.11542       -124.2966             -200               0             -200               0
1.625                 -0.3417599       -22.90316        -50.82529       -128.0298             -200               0             -200               0
1.63158               -0.3519102       -23.12054        -50.54129       -131.8217             -200               0             -200               0
1.63816               -0.3623905       -23.34072        -50.26394       -135.6665             -200               0             -200               0
1.64474               -0.3732144       -23.56374         -49.9937       -139.5586             -200               0             -200               0
1.65132               -0.3843953       -23.78962         -49.7309       -143.4922             -200               0             -200               0
1.65789               -0.3959461       -24.01835         -49.4758       -147.4619             -200               0             -200               0
1.66447               -0.4078783       -24.24997        -49.22858       -151.4623             -200               0             -200               0
1.67105               -0.4202041       -24.48448        -48.98935        -155.488             -200               0             -200               0
1.67763               -0.4329341        -24.7219        -48.75814       -159.5339             -200               0             -200               0
1.68421               -0.4460783       -24.96223        -48.53496       -163.5951             -200               0             -200               0
1.69079               -0.4596474        -25.2055        -48.31972       -167.6666             -200               0             -200               0
1.69737               -0.4736498       -25.45171         -48.1123       -171.7439             -200               0             -200               0
1.70395               -0.4880943       -25.70091        -47.91255       -175.8223             -200               0             -200               0
1.71053               -0.5029891       -25.95311        -47.72024       -179.8977             -200               0             -200               0
1.71711               -0.5183425       -26.20836        -47.53512        176.0344             -200               0             -200               0
1.72368               -0.5341608        -26.4667        -47.35688        171.9778             -200               0             -200               0
1.73026               -0.5504545       -26.72817        -47.18517        167.9366             -200               0             -200               0
1.73684               -0.5672298       -26.99285        -47.01959        163.9143             -200               0             -200               0
1.74342               -0.5844975       -27.26081         -46.8597        159.9144             -200               0             -200               0
1.75                  -0.6022651       -27.53211        -46.70502        155.9403             -200               0             -200               0
1.75658               -0.6205431       -27.80687        -46.55502         151.995             -200               0             -200               0
1.76316               -0.6393444       -28.08517        -46.40912        148.0812             -200               0             -200               0
1.76974               -0.6586811       -28.36712        -46.26669        144.2014             -200               0             -200               0
1.77632               -0.6785682       -28.65285        -46.12707        140.3578             -200               0             -200               0
1.78289               -0.6990217       -28.94246        -45.98955        136.5519             -200               0             -200               0
1.78947               -0.7200604       -29.23611        -45.85339        132.7853             -200               0             -200               0
1.79605               -0.7417048        -29.5339        -45.71779        129.0585             -200               0             -200               0
1.80263               -0.7639781         -29.836        -45.58195         125.372             -200               0             -200               0
1.80921               -0.7869048       -30.14253        -45.44505        121.7255             -200               0             -200               0
1.81579               -0.8105137       -30.45364        -45.30624        118.1181             -200               0             -200               0
1.82237               -0.8348337       -30.76946        -45.16469        114.5481             -200               0             -200               0
1.82895               -0.8598982       -31.09014        -45.01957        111.0135             -200               0             -200               0
1.83553               -0.8857423       -31.41581         -44.8701        107.5112             -200               0             -200               0
1.84211               -0.9124018       -31.74659        -44.71551        104.0378             -200               0             -200               0
1.84868               -0.9399183       -32.08262        -44.55512         100.589             -200               0             -200               0
1.85526               -0.9683317       -32.42401        -44.38831        97.16001             -200               0             -200               0
1.86184               -0.9976863       -32.77086        -44.21457        93.74546             -200               0             -200               0
1.86842                -1.028027       -33.12327        -44.03346        90.33959             -200               0             -200               0
1.875                  -1.059401       -33.48135        -43.84468        86.93626             -200               0             -200               0
1.88158                -1.091856       -33.84516        -43.64804        83.52912             -200               0             -200               0
1.88816                -1.125442        -34.2148        -43.44348        80.11173             -200               0             -200               0
1.89474                 -1.16021       -34.59033        -43.23105        76.67767             -200               0             -200               0
1.90132                -1.196212       -34.97181        -43.01095        73.22068             -200               0             -200               0
1.90789                  -1.2335       -35.35929        -42.78346        69.73479             -200               0             -200               0
1.91447                -1.272128       -35.75284        -42.54899        66.21439             -200               0             -200               0
1.92105                -1.312151       -36.15251        -42.30804        62.65436             -200               0             -200               0
1.92763                -1.353625       -36.55834        -42.06116        59.05011             -200               0             -200               0
1.93421                -1.396605       -36.97039        -41.80899        55.39763             -200               0             -200               0
1.94079                -1.441152       -37.38871        -41.55222        51.69353             -200               0             -200               0
1.94737                -1.487322       -37.81337        -41.29153        47.93503             -200               0             -200               0
1.95395                -1.535179       -38.24442        -41.02768        44.11998             -200               0             -200               0
1.96053                -1.584786       -38.68194        -40.76137         40.2468             -200               0             -200               0
1.96711                -1.636208       -39.12602        -40.49332        36.31445             -200               0             -200               0
1.97368                -1.689516       -39.57673        -40.22425        32.32243             -200               0             -200               0
1.98026                -1.744781        -40.0342        -39.95482        28.27067             -200               0             -200               0
1.98684                -1.802081       -40.49853        -39.68568         24.1595             -200               0             -200               0
1.99342                -1.861498       -40.96985        -39.41744        19.98961             -200               0             -200               0
2                      -1.923118        -41.4483        -39.15066        15.76201             -200               0             -200               0
2.00658                -1.987037       -41.93401        -38.88587        11.47792             -200               0             -200               0
2.01316                -2.053354       -42.42716        -38.62356        7.138797             -200               0             -200               0
2.01974                 -2.12218       -42.92789        -38.36418        2.746235             -200               0             -200               0
2.02632                -2.193629       -43.43638        -38.10812       -1.698036             -200               0             -200               0
2.03289                 -2.26783        -43.9528        -37.85576       -6.192197             -200               0             -200               0
2.03947                -2.344921       -44.47728        -37.60742       -10.73437             -200               0             -200               0
2.04605                -2.425048       -45.01001         -37.3634       -15.32264             -200               0             -200               0
2.05263                -2.508373       -45.55112        -37.12396       -19.95507             -200               0             -200               0
2.05921                -2.595066       -46.10073        -36.88934       -24.62974             -200               0             -200               0
2.06579                -2.685316       -46.65895        -36.65974       -29.34473             -200               0             -200               0
2.07237                -2.779321       -47.22583        -36.43534       -34.09815             -200               0             -200               0
2.07895                -2.877298       -47.80142         -36.2163       -38.88816             -200               0             -200               0
2.08553                -2.979474        -48.3857        -36.00276       -43.71296             -200               0             -200               0
2.09211                -3.086099       -48.97861        -35.79482       -48.57077             -200               0             -200               0
2.09868                -3.197436       -49.58001        -35.59261       -53.45991             -200               0             -200               0
2.10526                -3.313766       -50.18972         -35.3962       -58.37872             -200               0             -200               0
2.11184                -3.435387       -50.80747        -35.20566       -63.32561             -200               0             -200               0
2.11842                -3.562619        -51.4329        -35.02107       -68.29904             -200               0             -200               0
2.125                  -3.695801       -52.06554        -34.84246       -73.29753             -200               0             -200               0
2.13158                -3.835293       -52.70482        -34.66989       -78.31966             -200               0             -200               0
2.13816                -3.981476       -53.35008        -34.50339       -83.36406             -200               0             -200               0
2.14474                -4.134755       -54.00049        -34.34298        -88.4294             -200               0             -200               0
2.15132                 -4.29556       -54.65508        -34.18868       -93.51444             -200               0             -200               0
2.15789                -4.464346       -55.31273        -34.04052       -98.61794             -200               0             -200               0
2.16447                -4.641597       -55.97215         -33.8985       -103.7387             -200               0             -200               0
2.17105                -4.827827       -56.63182        -33.76263       -108.8757             -200               0             -200               0
2.17763                -5.023585       -57.29003        -33.63291       -114.0278             -200               0             -200               0
2.18421                -5.229451       -57.94482        -33.50936       -119.1939             -200               0             -200               0
2.19079                -5.446048       -58.59393        -33.39196        -124.373             -200               0             -200               0
2.19737                -5.674041       -59.23483        -33.28071       -129.5643             -200               0             -200               0
2.20395                -5.914141       -59.86458        -33.17561       -134.7666             -200               0             -200               0
2.21053                -6.167114       -60.47987        -33.07666       -139.9792             -200               0             -200               0
2.21711                -6.433785       -61.07689        -32.98385       -145.2011             -200               0             -200               0
2.22368                -6.715042       -61.65129        -32.89717       -150.4315             -200               0             -200               0
2.23026                -7.011851       -62.19807        -32.81662       -155.6695             -200               0             -200               0
2.23684                -7.325256       -62.71144        -32.74219       -160.9144             -200               0             -200               0
2.24342                -7.656396       -63.18471        -32.67387       -166.1654             -200               0             -200               0
2.25                   -8.006514       -63.61007        -32.61165       -171.4216             -200               0             -200               0
2.25658                -8.376963       -63.97834        -32.55554       -176.6824             -200               0             -200               0
2.26316                -8.769227       -64.27871        -32.50552         178.053             -200               0             -200               0
2.26974                -9.184924       -64.49831        -32.46159        172.7854             -200               0             -200               0
2.27632                 -9.62582        -64.6217        -32.42375        167.5154             -200               0             -200               0
2.28289                -10.09383       -64.63025        -32.39198        162.2438             -200               0             -200               0
2.28947                -10.59101       -64.50127        -32.36629        156.9712             -200               0             -200               0