! TOUCHSTONE file generated by CST MICROWAVE STUDIO
! Date and time: Tue Mar 18 20:31:43 2025
! Project name: hairline.cst
! Parameters = {B=12.5; D=160; F=25; Feed=2.85625; Fracture=0.5; L=100; M=30; R=0.384908; S=1.5; Theta=90; length=57.125; wave=114.25}
! Header version: 2024
! Port assignment regex: !\s*Touchstone port\s*([0-9]+)\s*=\s*(CST MWS port|CST DES external port|CST DES block port)\s*(.+)\s* \(\"(.*)\"\)(\s*mode\s*([0-9]+))?.*
! Touchstone port assignment:
! Touchstone port 1 = CST MWS port 1 ("")
! Touchstone port 2 = CST MWS port 2 ("")
# GHz S DB R 50
1                    -0.02153729       -9.751622        -65.95384        160.4058             -200               0             -200               0
1.0066               -0.02207462       -9.837333        -66.01694        154.5293             -200               0             -200               0
1.0132                -0.0225778        -9.92379        -66.11578        148.7694             -200               0             -200               0
1.0198               -0.02305124       -10.01106        -66.25191        143.1376             -200               0             -200               0
1.0264               -0.02350219       -10.09921        -66.42715        137.6484             -200               0             -200               0
1.033                -0.02393798        -10.1883        -66.64363        132.3207             -200               0             -200               0
1.0396               -0.02436713       -10.27837         -66.9038        127.1785             -200               0             -200               0
1.0462               -0.02480003       -10.36946        -67.21041        122.2529             -200               0             -200               0
1.05281              -0.02524619       -10.46161        -67.56645        117.5843             -200               0             -200               0
1.05941              -0.02571754       -10.55482        -67.97509        113.2249             -200               0             -200               0
1.06601              -0.02622416       -10.64912        -68.43936        109.2434             -200               0             -200               0
1.07261              -0.02677765       -10.74449        -68.96163        105.7303             -200               0             -200               0
1.07921              -0.02738818       -10.84093        -69.54256        102.8051             -200               0             -200               0
1.08581              -0.02806682        -10.9384        -70.17922        100.6242             -200               0             -200               0
1.09241              -0.02881971       -11.03688        -70.86152         99.3883             -200               0             -200               0
1.09901              -0.02965808       -11.13631         -71.5664        99.33969             -200               0             -200               0
1.10561               -0.0305859       -11.23667        -72.24923        100.7336             -200               0             -200               0
1.11221              -0.03160946       -11.33788        -72.83502        103.7508             -200               0             -200               0
1.11881              -0.03273013       -11.43989        -73.21929        108.3295             -200               0             -200               0
1.12541               -0.0339519       -11.54265        -73.29503        113.9812             -200               0             -200               0
1.13201              -0.03527404       -11.64609         -73.0061        119.8041             -200               0             -200               0
1.13861              -0.03669539       -11.75015        -72.38425        124.8294             -200               0             -200               0
1.14521              -0.03821042       -11.85479        -71.52738        128.4309             -200               0             -200               0
1.15182              -0.03981397       -11.95995        -70.54484        130.4373             -200               0             -200               0
1.15842              -0.04150232       -12.06559        -69.52103        130.9795             -200               0             -200               0
1.16502              -0.04326623       -12.17168        -68.50857        130.3038             -200               0             -200               0
1.17162              -0.04509544        -12.2782        -67.53566        128.6622             -200               0             -200               0
1.17822               -0.0469833       -12.38515        -66.61528        126.2692             -200               0             -200               0
1.18482               -0.0489194       -12.49251        -65.75182        123.2948             -200               0             -200               0
1.19142              -0.05089284        -12.6003        -64.94522        119.8696             -200               0             -200               0
1.19802              -0.05289342       -12.70856        -64.19325        116.0934             -200               0             -200               0
1.20462              -0.05491426       -12.81732        -63.49277        112.0419             -200               0             -200               0
1.21122              -0.05694531       -12.92662        -62.84039        107.7738             -200               0             -200               0
1.21782              -0.05897858       -13.03652         -62.2328        103.3344             -200               0             -200               0
1.22442              -0.06100864       -13.14711        -61.66687        98.75952             -200               0             -200               0
1.23102              -0.06303057       -13.25844        -61.13979        94.07778             -200               0             -200               0
1.23762              -0.06504288       -13.37061        -60.64902        89.31223             -200               0             -200               0
1.24422              -0.06704063       -13.48369         -60.1923        84.48187             -200               0             -200               0
1.25083              -0.06902828       -13.59779        -59.76762         79.6025             -200               0             -200               0
1.25743              -0.07100668       -13.71299        -59.37322        74.68755             -200               0             -200               0
1.26403              -0.07298004       -13.82937        -59.00752        69.74856             -200               0             -200               0
1.27063              -0.07495548       -13.94703        -58.66916        64.79565             -200               0             -200               0
1.27723              -0.07694143       -14.06603        -58.35689        59.83789             -200               0             -200               0
1.28383               -0.0789459       -14.18645        -58.06964         54.8835             -200               0             -200               0
1.29043               -0.0809797       -14.30835        -57.80642        49.94012             -200               0             -200               0
1.29703              -0.08305756       -14.43178        -57.56638        45.01496             -200               0             -200               0
1.30363              -0.08518895       -14.55678        -57.34873        40.11496             -200               0             -200               0
1.31023              -0.08738829       -14.68338        -57.15276        35.24694             -200               0             -200               0
1.31683              -0.08966834       -14.81158        -56.97782        30.41767             -200               0             -200               0
1.32343              -0.09204313        -14.9414        -56.82329        25.63401             -200               0             -200               0
1.33003              -0.09452523       -15.07281         -56.6886        20.90297             -200               0             -200               0
1.33663              -0.09712686       -15.20581        -56.57316        16.23183             -200               0             -200               0
1.34323              -0.09985752       -15.34036         -56.4764        11.62816             -200               0             -200               0
1.34984               -0.1027261       -15.47641        -56.39773        7.099963             -200               0             -200               0
1.35644                -0.105742       -15.61393        -56.33648        2.655653             -200               0             -200               0
1.36304               -0.1089105       -15.75285        -56.29197       -1.695831             -200               0             -200               0
1.36964               -0.1122362       -15.89312        -56.26336       -5.945027             -200               0             -200               0
1.37624               -0.1157204       -16.03468        -56.24974       -10.08194             -200               0             -200               0
1.38284                -0.119363       -16.17748        -56.24999       -14.09605             -200               0             -200               0
1.38944               -0.1231627       -16.32147        -56.26281       -17.97641             -200               0             -200               0
1.39604               -0.1271167       -16.46658        -56.28664       -21.71177             -200               0             -200               0
1.40264               -0.1312183        -16.6128        -56.31962       -25.29079             -200               0             -200               0
1.40924               -0.1354611       -16.76008        -56.35954       -28.70236             -200               0             -200               0
1.41584                -0.139836       -16.90842         -56.4038       -31.93608             -200               0             -200               0
1.42244               -0.1443349       -17.05779        -56.44935       -34.98282             -200               0             -200               0
1.42904               -0.1489482       -17.20823        -56.49268       -37.83551             -200               0             -200               0
1.43564               -0.1536646       -17.35974        -56.52985       -40.49008             -200               0             -200               0
1.44224               -0.1584739       -17.51237        -56.55651       -42.94644             -200               0             -200               0
1.44884               -0.1633687       -17.66617        -56.56801       -45.20958             -200               0             -200               0
1.45545               -0.1683373       -17.82122        -56.55957       -47.29055             -200               0             -200               0
1.46205               -0.1733738       -17.97759        -56.52652       -49.20712             -200               0             -200               0
1.46865                -0.178471       -18.13538        -56.46457       -50.98399             -200               0             -200               0
1.47525               -0.1836251       -18.29471        -56.37014       -52.65241             -200               0             -200               0
1.48185               -0.1888333       -18.45568        -56.24063       -54.24895             -200               0             -200               0
1.48845               -0.1940965       -18.61842        -56.07466       -55.81363             -200               0             -200               0
1.49505               -0.1994167       -18.78306         -55.8722       -57.38762             -200               0             -200               0
1.50165               -0.2047986       -18.94973        -55.63456       -59.01065             -200               0             -200               0
1.50825               -0.2102498       -19.11857        -55.36425       -60.71871             -200               0             -200               0
1.51485               -0.2157803       -19.28969        -55.06474       -62.54229             -200               0             -200               0
1.52145               -0.2214036       -19.46321        -54.74014       -64.50521             -200               0             -200               0
1.52805               -0.2271319       -19.63926        -54.39494       -66.62432             -200               0             -200               0
1.53465               -0.2329843       -19.81793        -54.03369       -68.90975             -200               0             -200               0
1.54125               -0.2389774       -19.99932        -53.66076       -71.36564             -200               0             -200               0
1.54785               -0.2451315        -20.1835        -53.28022       -73.99114             -200               0             -200               0
1.55446               -0.2514677       -20.37054        -52.89573       -76.78145             -200               0             -200               0
1.56106               -0.2580067       -20.56048        -52.51046       -79.72889             -200               0             -200               0
1.56766               -0.2647703       -20.75334        -52.12711       -82.82378             -200               0             -200               0
1.57426                 -0.27178       -20.94915        -51.74795       -86.05516             -200               0             -200               0
1.58086               -0.2790561       -21.14791        -51.37483       -89.41145             -200               0             -200               0
1.58746               -0.2866174       -21.34959        -51.00921       -92.88083             -200               0             -200               0
1.59406               -0.2944829       -21.55416        -50.65225       -96.45158             -200               0             -200               0
1.60066               -0.3026686        -21.7616        -50.30484       -100.1123             -200               0             -200               0
1.60726               -0.3111879       -21.97184        -49.96761       -103.8521             -200               0             -200               0
1.61386               -0.3200536       -22.18484        -49.64101       -107.6604             -200               0             -200               0
1.62046               -0.3292743       -22.40053        -49.32533       -111.5275             -200               0             -200               0
1.62706               -0.3388573       -22.61886        -49.02072       -115.4441             -200               0             -200               0
1.63366               -0.3488058       -22.83978         -48.7272       -119.4013             -200               0             -200               0
1.64026               -0.3591222       -23.06324         -48.4447       -123.3911             -200               0             -200               0
1.64686               -0.3698045       -23.28919        -48.17306       -127.4057             -200               0             -200               0
1.65347               -0.3808512       -23.51762        -47.91207       -131.4379             -200               0             -200               0
1.66007               -0.3922542       -23.74851        -47.66141       -135.4808             -200               0             -200               0
1.66667               -0.4040111       -23.98187        -47.42074       -139.5282             -200               0             -200               0
1.67327               -0.4161107       -24.21773        -47.18966       -143.5739             -200               0             -200               0
1.67987               -0.4285457       -24.45613        -46.96769       -147.6125             -200               0             -200               0
1.68647               -0.4413057       -24.69716        -46.75432       -151.6384             -200               0             -200               0
1.69307               -0.4543846        -24.9409          -46.549        -155.647             -200               0             -200               0
1.69967               -0.4677737       -25.18748        -46.35111       -159.6335             -200               0             -200               0
1.70627               -0.4814681       -25.43706        -46.15999       -163.5938             -200               0             -200               0
1.71287               -0.4954621       -25.68978        -45.97494        -167.524             -200               0             -200               0
1.71947               -0.5097556       -25.94585        -45.79519       -171.4207             -200               0             -200               0
1.72607               -0.5243489       -26.20548        -45.61994        -175.281             -200               0             -200               0
1.73267                -0.539248        -26.4689        -45.44834       -179.1024             -200               0             -200               0
1.73927                -0.554462       -26.73634         -45.2795        177.1171             -200               0             -200               0
1.74587               -0.5700041       -27.00805        -45.11249        173.3789             -200               0             -200               0
1.75248               -0.5858906       -27.28431        -44.94636        169.6836             -200               0             -200               0
1.75908               -0.6021455       -27.56538        -44.78011        166.0314             -200               0             -200               0
1.76568               -0.6187944       -27.85151        -44.61277        162.4215             -200               0             -200               0
1.77228               -0.6358695       -28.14298        -44.44335        158.8525             -200               0             -200               0
1.77888               -0.6534042       -28.44003        -44.27087        155.3222             -200               0             -200               0
1.78548               -0.6714418       -28.74291        -44.09441        151.8274             -200               0             -200               0
1.79208               -0.6900249       -29.05186        -43.91307        148.3644             -200               0             -200               0
1.79868               -0.7092008       -29.36708        -43.72606        144.9285             -200               0             -200               0
1.80528               -0.7290201       -29.68877        -43.53266        141.5145             -200               0             -200               0
1.81188               -0.7495373       -30.01711        -43.33224        138.1163             -200               0             -200               0
1.81848               -0.7708074       -30.35224        -43.12433        134.7277             -200               0             -200               0
1.82508               -0.7928879       -30.69431        -42.90856        131.3416             -200               0             -200               0
1.83168               -0.8158365       -31.04343        -42.68472        127.9512             -200               0             -200               0
1.83828               -0.8397124       -31.39969        -42.45275        124.5491             -200               0             -200               0
1.84488               -0.8645756       -31.76314        -42.21273        121.1284             -200               0             -200               0
1.85149               -0.8904845       -32.13387        -41.96487        117.6823             -200               0             -200               0
1.85809                -0.917498        -32.5119        -41.70952        114.2041             -200               0             -200               0
1.86469               -0.9456745       -32.89727        -41.44714        110.6878             -200               0             -200               0
1.87129               -0.9750677          -33.29        -41.17831        107.1281             -200               0             -200               0
1.87789                -1.005735       -33.69011        -40.90367        103.5201             -200               0             -200               0
1.88449                 -1.03773       -34.09763        -40.62393        99.85964             -200               0             -200               0
1.89109                -1.071106       -34.51256        -40.33984         96.1434             -200               0             -200               0
1.89769                -1.105915       -34.93496         -40.0522        92.36866             -200               0             -200               0
1.90429                -1.142209       -35.36487        -39.76179        88.53342             -200               0             -200               0
1.91089                 -1.18004       -35.80236         -39.4694        84.63632             -200               0             -200               0
1.91749                -1.219461       -36.24752        -39.17582        80.67662             -200               0             -200               0
1.92409                -1.260527       -36.70045        -38.88178        76.65412             -200               0             -200               0
1.93069                -1.303293        -37.1613        -38.58799         72.5691             -200               0             -200               0
1.93729                 -1.34782       -37.63024        -38.29514        68.42225             -200               0             -200               0
1.94389                -1.394172       -38.10745        -38.00384        64.21463             -200               0             -200               0
1.9505                 -1.442418       -38.59317        -37.71469         59.9476             -200               0             -200               0
1.9571                 -1.492634       -39.08765         -37.4282        55.62274             -200               0             -200               0
1.9637                 -1.544904       -39.59118        -37.14488        51.24184             -200               0             -200               0
1.9703                  -1.59932       -40.10407        -36.86515        46.80682             -200               0             -200               0
1.9769                 -1.655984       -40.62664        -36.58943        42.31972             -200               0             -200               0
1.9835                  -1.71501       -41.15925        -36.31805        37.78263             -200               0             -200               0
1.9901                 -1.776523       -41.70225        -36.05134        33.19771             -200               0             -200               0
1.9967                 -1.840663       -42.25601        -35.78957        28.56712             -200               0             -200               0
2.0033                 -1.907583       -42.82089        -35.53299        23.89299             -200               0             -200               0
2.0099                  -1.97745       -43.39724        -35.28181        19.17747             -200               0             -200               0
2.0165                  -2.05045       -43.98541        -35.03621        14.42266             -200               0             -200               0
2.0231                 -2.126782        -44.5857        -34.79636        9.630604             -200               0             -200               0
2.0297                 -2.206667       -45.19838        -34.56238        4.803312             -200               0             -200               0
2.0363                 -2.290339       -45.82367         -34.3344     -0.05727115             -200               0             -200               0
2.0429                 -2.378054       -46.46176        -34.11252       -4.949266             -200               0             -200               0
2.0495                 -2.470083       -47.11272         -33.8968       -9.870853             -200               0             -200               0
2.05611                -2.566722       -47.77661        -33.68732       -14.82028             -200               0             -200               0
2.06271                 -2.66828       -48.45335        -33.48414       -19.79585             -200               0             -200               0
2.06931                -2.775088       -49.14278        -33.28728       -24.79595             -200               0             -200               0
2.07591                -2.887497       -49.84466        -33.09679       -29.81901             -200               0             -200               0
2.08251                 -3.00588       -50.55857        -32.91269       -34.86354             -200               0             -200               0
2.08911                -3.130628       -51.28402        -32.73499       -39.92809             -200               0             -200               0
2.09571                -3.262155       -52.02035         -32.5637       -45.01129             -200               0             -200               0
2.10231                -3.400893       -52.76676        -32.39882       -50.11181             -200               0             -200               0
2.10891                -3.547303       -53.52229        -32.24036       -55.22837             -200               0             -200               0
2.11551                -3.701863       -54.28579        -32.08831       -60.35974             -200               0             -200               0
2.12211                 -3.86508       -55.05594        -31.94265       -65.50474             -200               0             -200               0
2.12871                -4.037487       -55.83118        -31.80339       -70.66224             -200               0             -200               0
2.13531                -4.219644       -56.60976        -31.67049       -75.83113             -200               0             -200               0
2.14191                -4.412141       -57.38966        -31.54396       -81.01038             -200               0             -200               0
2.14851                -4.615605       -58.16862        -31.42376       -86.19894             -200               0             -200               0
2.15512                -4.830698       -58.94402        -31.30988       -91.39583             -200               0             -200               0
2.16172                 -5.05812       -59.71294        -31.20229        -96.6001             -200               0             -200               0
2.16832                -5.298619       -60.47208        -31.10099       -101.8108             -200               0             -200               0
2.17492                -5.552994       -61.21766        -31.00594        -107.027             -200               0             -200               0
2.18152                -5.822097       -61.94546        -30.91713       -112.2479             -200               0             -200               0
2.18812                -6.106847        -62.6506        -30.83453       -117.4726             -200               0             -200               0
2.19472                -6.408229       -63.32756        -30.75811       -122.7002             -200               0             -200               0
2.20132                -6.727312          -63.97        -30.68786       -127.9299             -200               0             -200               0
2.20792                -7.065252        -64.5706        -30.62376       -133.1609             -200               0             -200               0
2.21452                -7.423302       -65.12084        -30.56578       -138.3925             -200               0             -200               0
2.22112                -7.802829       -65.61084         -30.5139       -143.6237             -200               0             -200               0
2.22772                -8.205317       -66.02891         -30.4681       -148.8538             -200               0             -200               0
2.23432                -8.632377       -66.36125        -30.42835       -154.0821             -200               0             -200               0
2.24092                -9.085758       -66.59133        -30.39464       -159.3078             -200               0             -200               0
2.24752                -9.567341       -66.69929        -30.36693       -164.5301             -200               0             -200               0
2.25413                -10.07912       -66.66095        -30.34522       -169.7483             -200               0             -200               0
2.26073                -10.62319       -66.44672        -30.32948       -174.9615             -200               0             -200               0
2.26733                -11.20161       -66.02001        -30.31968         179.831             -200               0             -200               0
2.27393                -11.81634        -65.3353        -30.31581        174.6299             -200               0             -200               0
2.28053                 -12.4689       -64.33561        -30.31784         169.436             -200               0             -200               0
2.28713                -13.15999       -62.94938        -30.32574        164.2502             -200               0             -200               0
2.29373                -13.88865       -61.08699        -30.33951        159.0731             -200               0             -200               0