! TOUCHSTONE file generated by CST MICROWAVE STUDIO
! Date and time: Tue Mar 18 20:31:45 2025
! Project name: hairline.cst
! Parameters = {B=12.5; D=160; F=25; Feed=2.85625; Fracture=1; L=100; M=50; R=0.384908; S=1.5; Theta=90; length=57.125; wave=114.25}
! Header version: 2024
! Port assignment regex: !\s*Touchstone port\s*([0-9]+)\s*=\s*(CST MWS port|CST DES external port|CST DES block port)\s*(.+)\s* \(\"(.*)\"\)(\s*mode\s*([0-9]+))?.*
! Touchstone port assignment:
! Touchstone port 1 = CST MWS port 1 ("")
! Touchstone port 2 = CST MWS port 2 ("")
# GHz S DB R 50
1                    -0.01942964       -9.763976        -70.62068        117.1418             -200               0             -200               0
1.00758              -0.02041884       -9.864195        -70.82545        112.0144             -200               0             -200               0
1.01515              -0.02141794       -9.964931        -71.06093         107.055             -200               0             -200               0
1.02273              -0.02242099       -10.06621        -71.32854        102.2881             -200               0             -200               0
1.0303               -0.02342332       -10.16808        -71.62961        97.74399             -200               0             -200               0
1.03788              -0.02442063       -10.27059        -71.96532        93.45998             -200               0             -200               0
1.04545              -0.02540942       -10.37377        -72.33641        89.48253             -200               0             -200               0
1.05303              -0.02638551       -10.47769        -72.74288        85.86912             -200               0             -200               0
1.06061              -0.02734968       -10.58242        -73.18334        82.69053             -200               0             -200               0
1.06818              -0.02830021       -10.68799        -73.65411        80.03274             -200               0             -200               0
1.07576               -0.0292365        -10.7945        -74.14783        77.99735             -200               0             -200               0
1.08333              -0.03016289       -10.90199        -74.65149        76.69831             -200               0             -200               0
1.09091              -0.03107979       -11.01053        -75.14386        76.25091             -200               0             -200               0
1.09848              -0.03199242       -11.12018        -75.59315        76.74719             -200               0             -200               0
1.10606              -0.03290501       -11.23101        -75.95621        78.21339             -200               0             -200               0
1.11364              -0.03382376       -11.34306        -76.18241        80.55456             -200               0             -200               0
1.12121              -0.03475515       -11.45639        -76.22442        83.51269             -200               0             -200               0
1.12879              -0.03570736       -11.57105        -76.05398        86.68238             -200               0             -200               0
1.13636              -0.03669009       -11.68707        -75.67369         89.6043             -200               0             -200               0
1.14394              -0.03770969       -11.80448        -75.11578        91.89228             -200               0             -200               0
1.15152              -0.03877588       -11.92332        -74.42901        93.31552             -200               0             -200               0
1.15909              -0.03989685        -12.0436        -73.66328        93.80235             -200               0             -200               0
1.16667              -0.04108382       -12.16533        -72.85992        93.39345             -200               0             -200               0
1.17424              -0.04234498       -12.28851        -72.04883        92.18737             -200               0             -200               0
1.18182              -0.04368875       -12.41315        -71.24964        90.30093             -200               0             -200               0
1.18939              -0.04512154       -12.53924        -70.47421         87.8472             -200               0             -200               0
1.19697              -0.04665176       -12.66677        -69.72909        84.92608             -200               0             -200               0
1.20455              -0.04828677       -12.79571        -69.01742        81.62184             -200               0             -200               0
1.21212              -0.05003155       -12.92605         -68.3402         78.0039             -200               0             -200               0
1.2197               -0.05188997       -13.05776        -67.69718        74.12887             -200               0             -200               0
1.22727              -0.05386612       -13.19082         -67.0874        70.04275             -200               0             -200               0
1.23485              -0.05596098        -13.3252        -66.50955        65.78299             -200               0             -200               0
1.24242              -0.05817903       -13.46088        -65.96213        61.38018             -200               0             -200               0
1.25                 -0.06051913       -13.59784        -65.44361        56.85953             -200               0             -200               0
1.25758              -0.06297979       -13.73607        -64.95249        52.24189             -200               0             -200               0
1.26515              -0.06555901       -13.87554        -64.48735        47.54473             -200               0             -200               0
1.27273               -0.0682572       -14.01625        -64.04686        42.78276             -200               0             -200               0
1.2803                -0.0710696        -14.1582        -63.62977        37.96855             -200               0             -200               0
1.28788              -0.07399309       -14.30139        -63.23495        33.11289             -200               0             -200               0
1.29545              -0.07702391       -14.44584        -62.86136        28.22519             -200               0             -200               0
1.30303              -0.08015867       -14.59156        -62.50803        23.31374             -200               0             -200               0
1.31061              -0.08339236        -14.7386        -62.17409        18.38591             -200               0             -200               0
1.31818                -0.086723       -14.88699        -61.85874        13.44838             -200               0             -200               0
1.32576              -0.09014649       -15.03676        -61.56125        8.507247             -200               0             -200               0
1.33333              -0.09365943       -15.18799        -61.28093        3.568146             -200               0             -200               0
1.34091              -0.09726057       -15.34073        -61.01716       -1.363614             -200               0             -200               0
1.34848               -0.1009508       -15.49504        -60.76935       -6.282989             -200               0             -200               0
1.35606               -0.1047276         -15.651        -60.53695       -11.18512             -200               0             -200               0
1.36364               -0.1085949        -15.8087        -60.31944       -16.06527             -200               0             -200               0
1.37121               -0.1125546       -15.96821        -60.11633       -20.91876             -200               0             -200               0
1.37879                -0.116611       -16.12962        -59.92713       -25.74093             -200               0             -200               0
1.38636               -0.1207706       -16.29301        -59.75135        -30.5271             -200               0             -200               0
1.39394               -0.1250404       -16.45846        -59.58853       -35.27254             -200               0             -200               0
1.40152               -0.1294284       -16.62607        -59.43816       -39.97241             -200               0             -200               0
1.40909               -0.1339441        -16.7959        -59.29974       -44.62176             -200               0             -200               0
1.41667               -0.1386006       -16.96805        -59.17274       -49.21552             -200               0             -200               0
1.42424               -0.1434101       -17.14257        -59.05656       -53.74845             -200               0             -200               0
1.43182               -0.1483861       -17.31953        -58.95058       -58.21521             -200               0             -200               0
1.43939               -0.1535435       -17.49899        -58.85411       -62.61029             -200               0             -200               0
1.44697               -0.1588966       -17.68099        -58.76636        -66.9281             -200               0             -200               0
1.45455               -0.1644606       -17.86558        -58.68647       -71.16298             -200               0             -200               0
1.46212               -0.1702543       -18.05278        -58.61345       -75.30926             -200               0             -200               0
1.4697                -0.1762925       -18.24262         -58.5462       -79.36139             -200               0             -200               0
1.47727               -0.1825907       -18.43511        -58.48349       -83.31401             -200               0             -200               0
1.48485               -0.1891661       -18.63026         -58.4239       -87.16215             -200               0             -200               0
1.49242               -0.1960329       -18.82805        -58.36587       -90.90137             -200               0             -200               0
1.5                   -0.2032065       -19.02849        -58.30767       -94.52807             -200               0             -200               0
1.50758               -0.2107002       -19.23155        -58.24738       -98.03968             -200               0             -200               0
1.51515               -0.2185274       -19.43721        -58.18294        -101.435             -200               0             -200               0
1.52273               -0.2266987       -19.64544        -58.11214       -104.7145             -200               0             -200               0
1.5303                -0.2352249       -19.85622        -58.03266       -107.8807             -200               0             -200               0
1.53788               -0.2441147       -20.06952        -57.94211       -110.9384             -200               0             -200               0
1.54545               -0.2533768       -20.28531        -57.83815       -113.8949             -200               0             -200               0
1.55303               -0.2630171       -20.50355        -57.71849       -116.7602             -200               0             -200               0
1.56061               -0.2730407       -20.72424        -57.58104        -119.547             -200               0             -200               0
1.56818               -0.2834518       -20.94736        -57.42397       -122.2705             -200               0             -200               0
1.57576               -0.2942528       -21.17288        -57.24583        -124.948             -200               0             -200               0
1.58333               -0.3054471       -21.40081         -57.0456       -127.5986             -200               0             -200               0
1.59091               -0.3170353       -21.63117        -56.82276       -130.2423             -200               0             -200               0
1.59848                -0.329019       -21.86396        -56.57731       -132.8995             -200               0             -200               0
1.60606               -0.3413971       -22.09921        -56.30979       -135.5899             -200               0             -200               0
1.61364                -0.354172       -22.33697        -56.02118       -138.3322             -200               0             -200               0
1.62121               -0.3673443       -22.57729        -55.71292        -141.143             -200               0             -200               0
1.62879               -0.3809147       -22.82023        -55.38675       -144.0368             -200               0             -200               0
1.63636               -0.3948862       -23.06588        -55.04467       -147.0255             -200               0             -200               0
1.64394               -0.4092608       -23.31432        -54.68881       -150.1183             -200               0             -200               0
1.65152               -0.4240438       -23.56565        -54.32139       -153.3219             -200               0             -200               0
1.65909               -0.4392427       -23.81999        -53.94457       -156.6403             -200               0             -200               0
1.66667               -0.4548632       -24.07745        -53.56046       -160.0755             -200               0             -200               0
1.67424               -0.4709168       -24.33818        -53.17103       -163.6276             -200               0             -200               0
1.68182               -0.4874149       -24.60229         -52.7781       -167.2952             -200               0             -200               0
1.68939               -0.5043727       -24.86994        -52.38334       -171.0754             -200               0             -200               0
1.69697                -0.521806       -25.14127        -51.98819       -174.9648             -200               0             -200               0
1.70455               -0.5397353       -25.41643        -51.59397        -178.959             -200               0             -200               0
1.71212               -0.5581804       -25.69556        -51.20178        176.9468             -200               0             -200               0
1.7197                -0.5771682       -25.97881        -50.81259        172.7576             -200               0             -200               0
1.72727                -0.596724       -26.26632        -50.42723        168.4786             -200               0             -200               0
1.73485               -0.6168765       -26.55823        -50.04637        164.1149             -200               0             -200               0
1.74242               -0.6376567       -26.85467        -49.67058        159.6717             -200               0             -200               0
1.75                  -0.6591006       -27.15576        -49.30034        155.1539             -200               0             -200               0
1.75758               -0.6812406       -27.46162        -48.93602        150.5663             -200               0             -200               0
1.76515               -0.7041158       -27.77236        -48.57792        145.9134             -200               0             -200               0
1.77273               -0.7277625       -28.08808        -48.22628        141.1995             -200               0             -200               0
1.7803                -0.7522217       -28.40885        -47.88128        136.4288             -200               0             -200               0
1.78788               -0.7775337       -28.73477        -47.54304        131.6051             -200               0             -200               0
1.79545               -0.8037403       -29.06589        -47.21167        126.7319             -200               0             -200               0
1.80303               -0.8308838       -29.40227        -46.88721        121.8126             -200               0             -200               0
1.81061               -0.8590063       -29.74399        -46.56969        116.8504             -200               0             -200               0
1.81818                -0.888152       -30.09105        -46.25912        111.8481             -200               0             -200               0
1.82576               -0.9183629       -30.44353        -45.95549        106.8086             -200               0             -200               0
1.83333               -0.9496826       -30.80145        -45.65877        101.7342             -200               0             -200               0
1.84091               -0.9821555       -31.16484        -45.36891        96.62752             -200               0             -200               0
1.84848                -1.015825       -31.53375        -45.08586        91.49058             -200               0             -200               0
1.85606                -1.050734       -31.90821        -44.80957        86.32546             -200               0             -200               0
1.86364                -1.086927       -32.28826        -44.53996        81.13406             -200               0             -200               0
1.87121                -1.124449       -32.67395        -44.27697        75.91814             -200               0             -200               0
1.87879                -1.163345       -33.06534        -44.02051        70.67936             -200               0             -200               0
1.88636                -1.203663       -33.46249        -43.77052        65.41924             -200               0             -200               0
1.89394                 -1.24545       -33.86549        -43.52691        60.13922             -200               0             -200               0
1.90152                -1.288758       -34.27442         -43.2896        54.84062             -200               0             -200               0
1.90909                -1.333637       -34.68941        -43.05852         49.5247             -200               0             -200               0
1.91667                -1.380145       -35.11055        -42.83358        44.19261             -200               0             -200               0
1.92424                 -1.42834       -35.53801         -42.6147        38.84545             -200               0             -200               0
1.93182                -1.478285       -35.97192         -42.4018        33.48425             -200               0             -200               0
1.93939                -1.530051       -36.41246        -42.19481        28.10995             -200               0             -200               0
1.94697                 -1.58371       -36.85981        -41.99365        22.72345             -200               0             -200               0
1.95455                -1.639343       -37.31418        -41.79825        17.32561             -200               0             -200               0
1.96212                -1.697039       -37.77576        -41.60854        11.91721             -200               0             -200               0
1.9697                 -1.756891       -38.24477        -41.42444        6.498999             -200               0             -200               0
1.97727                -1.819005       -38.72144        -41.24588        1.071691             -200               0             -200               0
1.98485                -1.883492       -39.20599        -41.07281        -4.36405             -200               0             -200               0
1.99242                -1.950478       -39.69864        -40.90515       -9.807596             -200               0             -200               0
2                      -2.020094       -40.19961        -40.74284       -15.25835             -200               0             -200               0
2.00758                -2.092487       -40.70911        -40.58583       -20.71574             -200               0             -200               0
2.01515                -2.167812       -41.22732        -40.43405       -26.17923             -200               0             -200               0
2.02273                 -2.24624        -41.7544        -40.28745       -31.64832             -200               0             -200               0
2.0303                 -2.327955        -42.2905        -40.14597       -37.12251             -200               0             -200               0
2.03788                 -2.41315       -42.83573        -40.00956       -42.60134             -200               0             -200               0
2.04545                -2.502039       -43.39013        -39.87818       -48.08436             -200               0             -200               0
2.05303                -2.594844       -43.95374        -39.75177       -53.57116             -200               0             -200               0
2.06061                -2.691807       -44.52648        -39.63028       -59.06132             -200               0             -200               0
2.06818                -2.793183       -45.10829        -39.51368       -64.55445             -200               0             -200               0
2.07576                -2.899246       -45.69897        -39.40192       -70.05019             -200               0             -200               0
2.08333                -3.010284       -46.29827        -39.29496       -75.54816             -200               0             -200               0
2.09091                -3.126604       -46.90586        -39.19275       -81.04802             -200               0             -200               0
2.09848                -3.248528       -47.52128        -39.09527       -86.54943             -200               0             -200               0
2.10606                -3.376403       -48.14402        -39.00248       -92.05207             -200               0             -200               0
2.11364                -3.510589        -48.7734        -38.91433       -97.55562             -200               0             -200               0
2.12121                 -3.65147       -49.40864        -38.83081       -103.0598             -200               0             -200               0
2.12879                -3.799454       -50.04883        -38.75187       -108.5642             -200               0             -200               0
2.13636                -3.954967       -50.69289         -38.6775       -114.0687             -200               0             -200               0
2.14394                -4.118465       -51.33959        -38.60765       -119.5729             -200               0             -200               0
2.15152                -4.290427        -51.9875        -38.54231       -125.0765             -200               0             -200               0
2.15909                -4.471364         -52.635        -38.48145       -130.5793             -200               0             -200               0
2.16667                -4.661815       -53.28022        -38.42504        -136.081             -200               0             -200               0
2.17424                -4.862358       -53.92108        -38.37307       -141.5813             -200               0             -200               0
2.18182                -5.073603       -54.55516        -38.32551       -147.0801             -200               0             -200               0
2.18939                -5.296207       -55.17975        -38.28234       -152.5769             -200               0             -200               0
2.19697                -5.530871       -55.79177        -38.24354       -158.0716             -200               0             -200               0
2.20455                -5.778346       -56.38767         -38.2091       -163.5639             -200               0             -200               0
2.21212                -6.039442       -56.96344          -38.179       -169.0535             -200               0             -200               0
2.2197                 -6.315031       -57.51449        -38.15323       -174.5403             -200               0             -200               0
2.22727                -6.606055       -58.03552        -38.13176        179.9761             -200               0             -200               0
2.23485                -6.913536       -58.52041        -38.11459        174.4959             -200               0             -200               0
2.24242                 -7.23858        -58.9621        -38.10171        169.0193             -200               0             -200               0
2.25                   -7.582393       -59.35232        -38.09311        163.5466             -200               0             -200               0
2.25758                -7.946279       -59.68138        -38.08877        158.0781             -200               0             -200               0
2.26515                -8.331661       -59.93782        -38.08868         152.614             -200               0             -200               0
2.27273                -8.740075       -60.10804        -38.09285        147.1546             -200               0             -200               0
2.2803                 -9.173181       -60.17572        -38.10126        141.7001             -200               0             -200               0
2.28788                -9.632747       -60.12121         -38.1139        136.2508             -200               0             -200               0
2.29545                -10.12063       -59.92055        -38.13078        130.8069             -200               0             -200               0
2.30303                -10.63875       -59.54448        -38.15188        125.3687             -200               0             -200               0
2.31061                -11.18895       -58.95681        -38.17721        119.9366             -200               0             -200               0
2.31818                -11.77289       -58.11271        -38.20676        114.5107             -200               0             -200               0
2.32576                -12.39173       -56.95625        -38.24054        109.0913             -200               0             -200               0
2.33333                -13.04569       -55.41773        -38.27853        103.6788             -200               0             -200               0
2.34091                -13.73322        -53.4106        -38.32074        98.27341             -200               0             -200               0
2.34848                 -14.4498       -50.82894        -38.36717        92.87546             -200               0             -200               0
2.35606                -15.18594       -47.54716        -38.41783        87.48524             -200               0             -200               0
2.36364                -15.92441       -43.42556        -38.47271        82.10308             -200               0             -200               0
2.37121                -16.63678        -38.3284        -38.53181        76.72929             -200               0             -200               0
2.37879                -17.28049       -32.16335        -38.59515        71.36419             -200               0             -200               0
2.38636                -17.79946       -24.94633        -38.66272        66.00814             -200               0             -200               0
2.39394                 -18.1328       -16.87461        -38.73453        60.66147             -200               0             -200               0
2.40152                -18.23319       -8.354618        -38.81058        55.32455             -200               0             -200               0
2.40909                -18.08704      0.07408533        -38.89088        49.99773             -200               0             -200               0
2.41667                -17.72113        7.901797        -38.97543         44.6814             -200               0             -200               0
2.42424                -17.18985         14.7909        -39.06425        39.37596             -200               0             -200               0
2.43182                  -16.554        20.61287        -39.15733        34.08179             -200               0             -200               0
2.43939                 -15.8655        25.39726        -39.25468        28.79932             -200               0             -200               0
2.44697                -15.16184        29.25723        -39.35631        23.52897             -200               0             -200               0
2.45455                -14.46717        32.33293        -39.46223        18.27119             -200               0             -200               0
2.46212                -13.79567         34.7604        -39.57244        13.02642             -200               0             -200               0
2.4697                 -13.15482        36.65861        -39.68695        7.795157             -200               0             -200               0
2.47727                -12.54789        38.12654        -39.80576        2.577872             -200               0             -200               0
2.48485                -11.97567        39.24448        -39.92888       -2.624924             -200               0             -200               0