! TOUCHSTONE file generated by CST MICROWAVE STUDIO
! Date and time: Tue Mar 18 20:31:46 2025
! Project name: hairline.cst
! Parameters = {B=12.5; D=160; F=15; Feed=2.85625; Fracture=0.5; L=100; M=30; R=0.384908; S=1.5; Theta=180; length=57.125; wave=114.25}
! Header version: 2024
! Port assignment regex: !\s*Touchstone port\s*([0-9]+)\s*=\s*(CST MWS port|CST DES external port|CST DES block port)\s*(.+)\s* \(\"(.*)\"\)(\s*mode\s*([0-9]+))?.*
! Touchstone port assignment:
! Touchstone port 1 = CST MWS port 1 ("")
! Touchstone port 2 = CST MWS port 2 ("")
# GHz S DB R 50
1                    -0.02142379        -9.71573        -66.33739        174.9739             -200               0             -200               0
1.0066               -0.02206386       -9.801346        -66.37242        169.2432             -200               0             -200               0
1.0132               -0.02268939        -9.88757        -66.44379        163.6204             -200               0             -200               0
1.0198               -0.02330077        -9.97445        -66.55301        158.1157             -200               0             -200               0
1.0264               -0.02390112       -10.06203        -66.70187        152.7426             -200               0             -200               0
1.033                -0.02449458       -10.15036        -66.89253        147.5183             -200               0             -200               0
1.0396               -0.02508489       -10.23946         -67.1275        142.4649             -200               0             -200               0
1.0462               -0.02567738       -10.32938        -67.40967         137.611             -200               0             -200               0
1.05281              -0.02627749       -10.42015        -67.74232        132.9935             -200               0             -200               0
1.05941              -0.02689198       -10.51179        -68.12905        128.6611             -200               0             -200               0
1.06601              -0.02752756       -10.60432        -68.57359        124.6774             -200               0             -200               0
1.07261              -0.02819024       -10.69774        -69.07949        121.1275             -200               0             -200               0
1.07921              -0.02888767       -10.79208        -69.64924        118.1248             -200               0             -200               0
1.08581              -0.02962518       -10.88731        -70.28278        115.8214             -200               0             -200               0
1.09241              -0.03041076       -10.98344        -70.97444        114.4182             -200               0             -200               0
1.09901              -0.03124956       -11.08045        -71.70743        114.1721             -200               0             -200               0
1.10561              -0.03214633       -11.17832        -72.44471        115.3822             -200               0             -200               0
1.11221              -0.03310549       -11.27702        -73.11694        118.3232             -200               0             -200               0
1.11881              -0.03413148       -11.37654        -73.61514        123.0781             -200               0             -200               0
1.12541              -0.03522685       -11.47685        -73.80873        129.2857             -200               0             -200               0
1.13201              -0.03639208        -11.5779        -73.60469        136.0243             -200               0             -200               0
1.13861              -0.03762829       -11.67967         -73.0105        142.1258             -200               0             -200               0
1.14521              -0.03893535       -11.78212        -72.12838        146.7365             -200               0             -200               0
1.15182              -0.04031174       -11.88524        -71.08842        149.5686             -200               0             -200               0
1.15842              -0.04175461       -11.98899        -69.99427         150.745             -200               0             -200               0
1.16502              -0.04326065       -12.09335        -68.91004        150.5515             -200               0             -200               0
1.17162              -0.04482579       -12.19831        -67.86915        149.2845             -200               0             -200               0
1.17822               -0.0464446       -12.30385        -66.88622         147.194             -200               0             -200               0
1.18482              -0.04811308       -12.40997        -65.96568         144.475             -200               0             -200               0
1.19142              -0.04982344       -12.51668        -65.10687        141.2748             -200               0             -200               0
1.19802              -0.05157213       -12.62398        -64.30681        137.7039             -200               0             -200               0
1.20462              -0.05335122        -12.7319        -63.56161        133.8454             -200               0             -200               0
1.21122               -0.0551566       -12.84046        -62.86725        129.7625             -200               0             -200               0
1.21782              -0.05698246        -12.9497        -62.21983         125.504             -200               0             -200               0
1.22442              -0.05882414       -13.05965         -61.6158        121.1076             -200               0             -200               0
1.23102              -0.06067777       -13.17037        -61.05193        116.6034             -200               0             -200               0
1.23762              -0.06254034       -13.28191        -60.52535        112.0155             -200               0             -200               0
1.24422              -0.06441024       -13.39431        -60.03352        107.3637             -200               0             -200               0
1.25083               -0.0662861       -13.50766         -59.5742        102.6642             -200               0             -200               0
1.25743               -0.0681686       -13.62201        -59.14539         97.9308             -200               0             -200               0
1.26403              -0.07005934       -13.73741        -58.74535        93.17531             -200               0             -200               0
1.27063              -0.07196057       -13.85395        -58.37249        88.40803             -200               0             -200               0
1.27723              -0.07387638       -13.97167        -58.02543        83.63811             -200               0             -200               0
1.28383              -0.07581272       -14.09064        -57.70291        78.87382             -200               0             -200               0
1.29043              -0.07777457       -14.21091        -57.40381         74.1228             -200               0             -200               0
1.29703              -0.07977009       -14.33253        -57.12708         69.3922             -200               0             -200               0
1.30363              -0.08180633       -14.45555        -56.87178        64.68882             -200               0             -200               0
1.31023              -0.08389299          -14.58        -56.63704        60.01928             -200               0             -200               0
1.31683              -0.08603797       -14.70591        -56.42201        55.39007             -200               0             -200               0
1.32343              -0.08824954        -14.8333         -56.2259        50.80763             -200               0             -200               0
1.33003              -0.09053936       -14.96219        -56.04793        46.27847             -200               0             -200               0
1.33663              -0.09291426       -15.09257        -55.88732        41.80918             -200               0             -200               0
1.34323              -0.09538435       -15.22446        -55.74327        37.40647             -200               0             -200               0
1.34984               -0.0979565       -15.35783        -55.61495        33.07723             -200               0             -200               0
1.35644               -0.1006378       -15.49268        -55.50149         28.8285             -200               0             -200               0
1.36304               -0.1034349       -15.62899        -55.40192        24.66754             -200               0             -200               0
1.36964               -0.1063527       -15.76673         -55.3152        20.60168             -200               0             -200               0
1.37624               -0.1093958       -15.90587        -55.24016         16.6384             -200               0             -200               0
1.38284               -0.1125658       -16.04639        -55.17549        12.78513             -200               0             -200               0
1.38944               -0.1158647       -16.18826        -55.11971        9.049176             -200               0             -200               0
1.39604               -0.1192925       -16.33145        -55.07117        5.437516             -200               0             -200               0
1.40264               -0.1228479       -16.47595        -55.02799        1.956569             -200               0             -200               0
1.40924               -0.1265289       -16.62173        -54.98808       -1.388112             -200               0             -200               0
1.41584               -0.1303316       -16.76878        -54.94909       -4.592199             -200               0             -200               0
1.42244               -0.1342517       -16.91711        -54.90848       -7.653009             -200               0             -200               0
1.42904               -0.1382844       -17.06672        -54.86348       -10.56996             -200               0             -200               0
1.43564               -0.1424236       -17.21761        -54.81118       -13.34507             -200               0             -200               0
1.44224               -0.1466633       -17.36983        -54.74856       -15.98338             -200               0             -200               0
1.44884               -0.1509992        -17.5234        -54.67261       -18.49333             -200               0             -200               0
1.45545               -0.1554244       -17.67837        -54.58042         -20.887             -200               0             -200               0
1.46205               -0.1599334        -17.8348        -54.46933       -23.18011             -200               0             -200               0
1.46865               -0.1645213       -17.99276        -54.33707       -25.39179             -200               0             -200               0
1.47525               -0.1691869       -18.15232        -54.18189       -27.54401             -200               0             -200               0
1.48185               -0.1739253       -18.31358        -54.00266       -29.66082             -200               0             -200               0
1.48845               -0.1787373       -18.47663        -53.79893       -31.76734             -200               0             -200               0
1.49505               -0.1836223       -18.64157          -53.571       -33.88858             -200               0             -200               0
1.50165               -0.1885834       -18.80851        -53.31984        -36.0484             -200               0             -200               0
1.50825               -0.1936263       -18.97755        -53.04704       -38.26844             -200               0             -200               0
1.51485               -0.1987551       -19.14881        -52.75469       -40.56738             -200               0             -200               0
1.52145               -0.2039781       -19.32239        -52.44523       -42.96046             -200               0             -200               0
1.52805                -0.209307       -19.49841        -52.12136       -45.45922             -200               0             -200               0
1.53465               -0.2147523       -19.67697        -51.78582       -48.07157             -200               0             -200               0
1.54125               -0.2203283       -19.85816        -51.44139       -50.80204             -200               0             -200               0
1.54785               -0.2260487       -20.04208        -51.09068       -53.65212             -200               0             -200               0
1.55446               -0.2319314       -20.22881        -50.73615       -56.62077             -200               0             -200               0
1.56106               -0.2379936       -20.41842        -50.38005       -59.70489             -200               0             -200               0
1.56766               -0.2442525       -20.61096        -50.02435       -62.89973             -200               0             -200               0
1.57426               -0.2507281        -20.8065         -49.6708       -66.19938             -200               0             -200               0
1.58086               -0.2574384       -21.00506        -49.32089        -69.5971             -200               0             -200               0
1.58746               -0.2644036       -21.20667        -48.97589       -73.08558             -200               0             -200               0
1.59406               -0.2716414       -21.41136        -48.63685       -76.65726             -200               0             -200               0
1.60066               -0.2791701       -21.61911        -48.30462       -80.30445             -200               0             -200               0
1.60726               -0.2870061       -21.82993         -47.9799       -84.01949             -200               0             -200               0
1.61386               -0.2951666       -22.04381        -47.66321       -87.79487             -200               0             -200               0
1.62046               -0.3036663       -22.26073        -47.35494       -91.62326             -200               0             -200               0
1.62706               -0.3125165       -22.48066        -47.05539       -95.49758             -200               0             -200               0
1.63366               -0.3217292       -22.70357        -46.76473       -99.41102             -200               0             -200               0
1.64026               -0.3313153       -22.92944        -46.48304       -103.3571             -200               0             -200               0
1.64686               -0.3412818       -23.15825        -46.21033       -107.3295             -200               0             -200               0
1.65347               -0.3516349       -23.38998        -45.94654       -111.3223             -200               0             -200               0
1.66007               -0.3623789       -23.62462        -45.69154         -115.33             -200               0             -200               0
1.66667                -0.373516       -23.86214        -45.44514       -119.3469             -200               0             -200               0
1.67327               -0.3850492       -24.10257        -45.20712       -123.3681             -200               0             -200               0
1.67987               -0.3969797       -24.34593        -44.97717       -127.3887             -200               0             -200               0
1.68647               -0.4093063       -24.59223        -44.75496        -131.404             -200               0             -200               0
1.69307                -0.422028       -24.84155        -44.54011       -135.4097             -200               0             -200               0
1.69967               -0.4351447       -25.09393        -44.33219       -139.4017             -200               0             -200               0
1.70627               -0.4486574       -25.34947        -44.13073       -143.3762             -200               0             -200               0
1.71287                -0.462565       -25.60826        -43.93522       -147.3296             -200               0             -200               0
1.71947               -0.4768694       -25.87043        -43.74509       -151.2586             -200               0             -200               0
1.72607               -0.4915734        -26.1361        -43.55975       -155.1603             -200               0             -200               0
1.73267               -0.5066834       -26.40544        -43.37856       -159.0322             -200               0             -200               0
1.73927               -0.5222053       -26.67862        -43.20084        -162.872             -200               0             -200               0
1.74587               -0.5381502        -26.9558        -43.02587       -166.6778             -200               0             -200               0
1.75248               -0.5545304       -27.23719         -42.8529       -170.4484             -200               0             -200               0
1.75908               -0.5713612       -27.52299        -42.68117       -174.1829             -200               0             -200               0
1.76568               -0.5886645       -27.81341        -42.50987        -177.881             -200               0             -200               0
1.77228               -0.6064632       -28.10867         -42.3382        178.4573             -200               0             -200               0
1.77888                -0.624783       -28.40899        -42.16534        174.8309             -200               0             -200               0
1.78548               -0.6436555       -28.71457        -41.99048        171.2385             -200               0             -200               0
1.79208               -0.6631154       -29.02564        -41.81283         167.678             -200               0             -200               0
1.79868               -0.6831997        -29.3424        -41.63163        164.1468             -200               0             -200               0
1.80528               -0.7039512       -29.66507        -41.44618        160.6414             -200               0             -200               0
1.81188               -0.7254155       -29.99382         -41.2558        157.1579             -200               0             -200               0
1.81848               -0.7476391       -30.32884        -41.05994         153.692             -200               0             -200               0
1.82508               -0.7706741        -30.6703        -40.85808        150.2386             -200               0             -200               0
1.83168               -0.7945733       -31.01834        -40.64982        146.7924             -200               0             -200               0
1.83828               -0.8193933        -31.3731        -40.43488        143.3478             -200               0             -200               0
1.84488               -0.8451918       -31.73471        -40.21307        139.8989             -200               0             -200               0
1.85149               -0.8720286       -32.10327        -39.98432        136.4397             -200               0             -200               0
1.85809               -0.8999639       -32.47888        -39.74867        132.9644             -200               0             -200               0
1.86469               -0.9290606       -32.86161         -39.5063        129.4673             -200               0             -200               0
1.87129                -0.959381       -33.25153        -39.25744        125.9427             -200               0             -200               0
1.87789               -0.9909896       -33.64868        -39.00247        122.3857             -200               0             -200               0
1.88449                 -1.02395       -34.05313        -38.74183        118.7913             -200               0             -200               0
1.89109                 -1.05833       -34.46491        -38.47602        115.1555             -200               0             -200               0
1.89769                -1.094193       -34.88403        -38.20562        111.4743             -200               0             -200               0
1.90429                -1.131606       -35.31056        -37.93125        107.7448             -200               0             -200               0
1.91089                -1.170637       -35.74449        -37.65355        103.9642             -200               0             -200               0
1.91749                -1.211354       -36.18587        -37.37317        100.1305             -200               0             -200               0
1.92409                -1.253827       -36.63475         -37.0908        96.24218             -200               0             -200               0
1.93069                 -1.29813       -37.09114        -36.80708        92.29826             -200               0             -200               0
1.93729                -1.344337        -37.5551        -36.52267        88.29816             -200               0             -200               0
1.94389                -1.392523       -38.02669        -36.23819        84.24178             -200               0             -200               0
1.9505                 -1.442772       -38.50597        -35.95425        80.12937             -200               0             -200               0
1.9571                 -1.495169       -38.99301         -35.6714        75.96153             -200               0             -200               0
1.9637                 -1.549804       -39.48789        -35.39019        71.73912             -200               0             -200               0
1.9703                 -1.606773       -39.99071         -35.1111        67.46326             -200               0             -200               0
1.9769                  -1.66618       -40.50156         -34.8346        63.13527             -200               0             -200               0
1.9835                 -1.728133       -41.02053        -34.56111        58.75663             -200               0             -200               0
1.9901                 -1.792752       -41.54773        -34.29101        54.32893             -200               0             -200               0
1.9967                 -1.860163       -42.08324        -34.02465        49.85387             -200               0             -200               0
2.0033                 -1.930504       -42.62717        -33.76235        45.33321             -200               0             -200               0
2.0099                 -2.003922       -43.17958        -33.50439        40.76875             -200               0             -200               0
2.0165                 -2.080577       -43.74052        -33.25102        36.16233             -200               0             -200               0
2.0231                 -2.160637       -44.31004        -33.00248        31.51576             -200               0             -200               0
2.0297                 -2.244289       -44.88815        -32.75895        26.83089             -200               0             -200               0
2.0363                 -2.331726       -45.47477        -32.52061        22.10952             -200               0             -200               0
2.0429                  -2.42316       -46.06986        -32.28762        17.35341             -200               0             -200               0
2.0495                 -2.518815       -46.67327        -32.06011        12.56433             -200               0             -200               0
2.05611                -2.618931       -47.28478         -31.8382        7.743958             -200               0             -200               0
2.06271                -2.723763       -47.90413        -31.62199        2.893965             -200               0             -200               0
2.06931                -2.833579       -48.53097        -31.41155       -1.984046             -200               0             -200               0
2.07591                -2.948666       -49.16483        -31.20697       -6.888514             -200               0             -200               0
2.08251                -3.069328       -49.80518        -31.00831       -11.81793             -200               0             -200               0
2.08911                -3.195881       -50.45133        -30.81561       -16.77084             -200               0             -200               0
2.09571                -3.328665       -51.10251        -30.62893       -21.74583             -200               0             -200               0
2.10231                 -3.46803       -51.75778        -30.44827       -26.74154             -200               0             -200               0
2.10891                -3.614352       -52.41605        -30.27369       -31.75666             -200               0             -200               0
2.11551                -3.768019       -53.07608         -30.1052       -36.78993             -200               0             -200               0
2.12211                -3.929443       -53.73643         -29.9428       -41.84013             -200               0             -200               0
2.12871                -4.099053       -54.39547        -29.78652       -46.90607             -200               0             -200               0
2.13531                  -4.2773       -55.05134        -29.63636       -51.98663             -200               0             -200               0
2.14191                -4.464659       -55.70195        -29.49232        -57.0807             -200               0             -200               0
2.14851                -4.661627        -56.3449        -29.35439       -62.18722             -200               0             -200               0
2.15512                -4.868724       -56.97754        -29.22259       -67.30517             -200               0             -200               0
2.16172                -5.086498       -57.59684        -29.09689       -72.43354             -200               0             -200               0
2.16832                -5.315524       -58.19941         -28.9773       -77.57137             -200               0             -200               0
2.17492                -5.556407       -58.78141        -28.86381       -82.71772             -200               0             -200               0
2.18152                 -5.80978       -59.33854        -28.75641       -87.87168             -200               0             -200               0
2.18812                -6.076311       -59.86588        -28.65508       -93.03235             -200               0             -200               0
2.19472                -6.356702       -60.35791        -28.55982       -98.19888             -200               0             -200               0
2.20132                -6.651686       -60.80834        -28.47062       -103.3704             -200               0             -200               0
2.20792                -6.962033       -61.20999        -28.38745       -108.5461             -200               0             -200               0
2.21452                -7.288547       -61.55466        -28.31032       -113.7251             -200               0             -200               0
2.22112                -7.632058       -61.83292         -28.2392       -118.9067             -200               0             -200               0
2.22772                -7.993421        -62.0339        -28.17409         -124.09             -200               0             -200               0
2.23432                -8.373499       -62.14505        -28.11498       -129.2743             -200               0             -200               0
2.24092                -8.773153       -62.15172        -28.06184       -134.4587             -200               0             -200               0
2.24752                -9.193196       -62.03684        -28.01467       -139.6426             -200               0             -200               0
2.25413                -9.634368       -61.78043        -27.97346       -144.8252             -200               0             -200               0
2.26073                -10.09725       -61.35899        -27.93819       -150.0056             -200               0             -200               0
2.26733                -10.58218       -60.74494        -27.90885       -155.1832             -200               0             -200               0
2.27393                -11.08909       -59.90579        -27.88543       -160.3571             -200               0             -200               0
2.28053                -11.61729        -58.8035        -27.86791       -165.5266             -200               0             -200               0
2.28713                -12.16517       -57.39381        -27.85629        -170.691             -200               0             -200               0
2.29373                -12.72977       -55.62603        -27.85055       -175.8494             -200               0             -200               0