! TOUCHSTONE file generated by CST MICROWAVE STUDIO
! Date and time: Tue Mar 18 20:31:49 2025
! Project name: hairline.cst
! Parameters = {B=12.5; D=160; F=25; Feed=2.85625; Fracture=0.5; L=100; M=30; R=0.384908; S=1.5; Theta=180; length=57.125; wave=114.25}
! Header version: 2024
! Port assignment regex: !\s*Touchstone port\s*([0-9]+)\s*=\s*(CST MWS port|CST DES external port|CST DES block port)\s*(.+)\s* \(\"(.*)\"\)(\s*mode\s*([0-9]+))?.*
! Touchstone port assignment:
! Touchstone port 1 = CST MWS port 1 ("")
! Touchstone port 2 = CST MWS port 2 ("")
# GHz S DB R 50
1                    -0.02154811       -9.725035        -65.86481        160.2563             -200               0             -200               0
1.0066               -0.02207283       -9.810412        -65.92881        154.3209             -200               0             -200               0
1.0132               -0.02255954       -9.896547         -66.0287        148.4994             -200               0             -200               0
1.0198               -0.02301582       -9.983513        -66.16612        142.8022             -200               0             -200               0
1.0264               -0.02344565       -10.07137        -66.34297        137.2434             -200               0             -200               0
1.033                -0.02385947       -10.16019        -66.56151        131.8408             -200               0             -200               0
1.0396               -0.02426417          -10.25        -66.82433        126.6175             -200               0             -200               0
1.0462               -0.02467322       -10.34087        -67.13442        121.6034             -200               0             -200               0
1.05281              -0.02509617        -10.4328         -67.4951        116.8375             -200               0             -200               0
1.05941              -0.02554284       -10.52583        -67.90994        112.3705             -200               0             -200               0
1.06601              -0.02602756       -10.61996        -68.38262        108.2699             -200               0             -200               0
1.07261              -0.02656082       -10.71519        -68.91641        104.6248             -200               0             -200               0
1.07921              -0.02715237       -10.81149        -69.51328        101.5549             -200               0             -200               0
1.08581              -0.02781393       -10.90884        -70.17211        99.21925             -200               0             -200               0
1.09241              -0.02855374       -11.00721        -70.88527        97.82696             -200               0             -200               0
1.09901              -0.02938102       -11.10655        -71.63261        97.64011             -200               0             -200               0
1.10561              -0.03030148        -11.2068        -72.37177        98.95274             -200               0             -200               0
1.11221              -0.03132155       -11.30791        -73.02671        102.0082             -200               0             -200               0
1.11881              -0.03244155       -11.40982          -73.484        106.8142             -200               0             -200               0
1.12541              -0.03366619       -11.51247         -73.6183        112.9038             -200               0             -200               0
1.13201              -0.03499432       -11.61578        -73.35503        119.2926             -200               0             -200               0
1.13861              -0.03642167       -11.71971        -72.72225        124.8622             -200               0             -200               0
1.14521              -0.03794706       -11.82419        -71.82986        128.8783             -200               0             -200               0
1.15182              -0.03956394       -11.92917        -70.80261        131.1481             -200               0             -200               0
1.15842               -0.0412643       -12.03461        -69.73501        131.8322             -200               0             -200               0
1.16502              -0.04304107       -12.14048        -68.68404        131.2168             -200               0             -200               0
1.17162               -0.0448847       -12.24676        -67.67887        129.5854             -200               0             -200               0
1.17822               -0.0467868       -12.35344        -66.73199        127.1738             -200               0             -200               0
1.18482              -0.04873381       -12.46051        -65.84687         124.165             -200               0             -200               0
1.19142              -0.05071807       -12.56799        -65.02254        120.6972             -200               0             -200               0
1.19802              -0.05272779       -12.67591        -64.25598        116.8747             -200               0             -200               0
1.20462               -0.0547543       -12.78431        -63.54341        112.7758             -200               0             -200               0
1.21122              -0.05678746       -12.89325        -62.88095        108.4606             -200               0             -200               0
1.21782              -0.05882096       -13.00277        -62.26489        103.9753             -200               0             -200               0
1.22442              -0.06084743       -13.11297        -61.69181        99.35595             -200               0             -200               0
1.23102              -0.06286186       -13.22391        -61.15866        94.63131             -200               0             -200               0
1.23762              -0.06486058       -13.33568        -60.66271         89.8245             -200               0             -200               0
1.24422              -0.06684437       -13.44838        -60.20157        84.95443             -200               0             -200               0
1.25083              -0.06881227        -13.5621        -59.77312        80.03683             -200               0             -200               0
1.25743              -0.07076858       -13.67693         -59.3755        75.08498             -200               0             -200               0
1.26403              -0.07271698       -13.79295        -59.00707        70.11031             -200               0             -200               0
1.27063              -0.07466505       -13.91027         -58.6664        65.12283             -200               0             -200               0
1.27723              -0.07662039       -14.02895         -58.3522        60.13145             -200               0             -200               0
1.28383              -0.07859266       -14.14907        -58.06336        55.14432             -200               0             -200               0
1.29043              -0.08059478       -14.27069        -57.79888        50.16895             -200               0             -200               0
1.29703              -0.08263973       -14.39386        -57.55787        45.21246             -200               0             -200               0
1.30363              -0.08473826       -14.51862        -57.33954        40.28173             -200               0             -200               0
1.31023              -0.08690563         -14.645        -57.14316        35.38347             -200               0             -200               0
1.31683              -0.08915475       -14.77301        -56.96807        30.52441             -200               0             -200               0
1.32343              -0.09150089       -14.90266        -56.81367        25.71135             -200               0             -200               0
1.33003              -0.09395694       -15.03391        -56.67936        20.95126             -200               0             -200               0
1.33663              -0.09653285       -15.16677        -56.56459        16.25141             -200               0             -200               0
1.34323              -0.09924142       -15.30118        -56.46878        11.61936             -200               0             -200               0
1.34984               -0.1020925        -15.4371        -56.39134        7.063122             -200               0             -200               0
1.35644               -0.1050939       -15.57448        -56.33166        2.591167             -200               0             -200               0
1.36304               -0.1082507       -15.71327        -56.28903       -1.787499             -200               0             -200               0
1.36964               -0.1115674        -15.8534        -56.26267       -6.063302             -200               0             -200               0
1.37624               -0.1150458       -15.99482        -56.25166       -10.22609             -200               0             -200               0
1.38284               -0.1186856       -16.13746        -56.25493       -14.26514             -200               0             -200               0
1.38944               -0.1224844       -16.28126        -56.27119       -18.16923             -200               0             -200               0
1.39604               -0.1264397       -16.42618         -56.2989       -21.92677             -200               0             -200               0
1.40264               -0.1305437       -16.57218        -56.33624       -25.52599             -200               0             -200               0
1.40924               -0.1347901       -16.71922        -56.38099       -28.95527             -200               0             -200               0
1.41584               -0.1391689       -16.86729        -56.43054       -32.20361             -200               0             -200               0
1.42244               -0.1436704       -17.01637        -56.48183        -35.2612             -200               0             -200               0
1.42904               -0.1482854       -17.16649        -56.53131       -38.12022             -200               0             -200               0
1.43564               -0.1530028       -17.31767        -56.57494       -40.77582             -200               0             -200               0
1.44224               -0.1578116       -17.46994        -56.60827       -43.22717             -200               0             -200               0
1.44884               -0.1627008       -17.62336        -56.62649       -45.47863             -200               0             -200               0
1.45545               -0.1676624       -17.77801        -56.62463       -47.54082             -200               0             -200               0
1.46205               -0.1726888       -17.93397        -56.59781       -49.43139             -200               0             -200               0
1.46865                -0.177771       -18.09134        -56.54148       -51.17536             -200               0             -200               0
1.47525               -0.1829072       -18.25024        -56.45183       -52.80472             -200               0             -200               0
1.48185               -0.1880929       -18.41078        -56.32605       -54.35722             -200               0             -200               0
1.48845               -0.1933286       -18.57309        -56.16262        -55.8745             -200               0             -200               0
1.49505               -0.1986185       -18.73731        -55.96144        -57.3995             -200               0             -200               0
1.50165               -0.2039657       -18.90357        -55.72381       -58.97384             -200               0             -200               0
1.50825               -0.2093778         -19.072        -55.45232       -60.63523             -200               0             -200               0
1.51485               -0.2148664       -19.24273        -55.15058       -62.41559             -200               0             -200               0
1.52145               -0.2204455       -19.41589         -54.8229       -64.33982             -200               0             -200               0
1.52805               -0.2261263        -19.5916        -54.47394       -66.42543             -200               0             -200               0
1.53465                 -0.23193       -19.76995        -54.10846       -68.68284             -200               0             -200               0
1.54125               -0.2378726       -19.95104        -53.73103       -71.11618             -200               0             -200               0
1.54785               -0.2439764       -20.13495        -53.34585       -73.72435             -200               0             -200               0
1.55446               -0.2502616       -20.32174        -52.95671       -76.50216             -200               0             -200               0
1.56106               -0.2567508       -20.51145         -52.5669       -79.44144             -200               0             -200               0
1.56766               -0.2634647       -20.70412        -52.17918       -82.53197             -200               0             -200               0
1.57426               -0.2704266       -20.89974        -51.79587       -85.76229             -200               0             -200               0
1.58086                -0.277658       -21.09833        -51.41886       -89.12031             -200               0             -200               0
1.58746               -0.2851761       -21.29986        -51.04962       -92.59378             -200               0             -200               0
1.59406               -0.2930024       -21.50429        -50.68934       -96.17058             -200               0             -200               0
1.60066               -0.3011502        -21.7116        -50.33888       -99.83896             -200               0             -200               0
1.60726               -0.3096355       -21.92171         -49.9989       -103.5876             -200               0             -200               0
1.61386               -0.3184709       -22.13457        -49.66982        -107.406             -200               0             -200               0
1.62046                -0.327663       -22.35014        -49.35193       -111.2839             -200               0             -200               0
1.62706                 -0.33722       -22.56832        -49.04537       -115.2118             -200               0             -200               0
1.63366               -0.3471467       -22.78908        -48.75014       -119.1809             -200               0             -200               0
1.64026               -0.3574408       -23.01237        -48.46617       -123.1829             -200               0             -200               0
1.64686               -0.3681045       -23.23813        -48.19329       -127.2098             -200               0             -200               0
1.65347                -0.379132       -23.46635        -47.93127       -131.2544             -200               0             -200               0
1.66007               -0.3905178         -23.697        -47.67979       -135.3097             -200               0             -200               0
1.66667               -0.4022548        -23.9301         -47.4385       -139.3694             -200               0             -200               0
1.67327                -0.414335       -24.16568        -47.20698       -143.4272             -200               0             -200               0
1.67987               -0.4267494       -24.40378        -46.98475       -147.4776             -200               0             -200               0
1.68647               -0.4394875       -24.64449         -46.7713        -151.515             -200               0             -200               0
1.69307               -0.4525408       -24.88789        -46.56606       -155.5346             -200               0             -200               0
1.69967               -0.4659017       -25.13412        -46.36841       -159.5317             -200               0             -200               0
1.70627               -0.4795621       -25.38331        -46.17768        -163.502             -200               0             -200               0
1.71287               -0.4935195       -25.63566        -45.99316       -167.4416             -200               0             -200               0
1.71947               -0.5077704       -25.89134        -45.81407        -171.347             -200               0             -200               0
1.72607               -0.5223186       -26.15057        -45.63961       -175.2152             -200               0             -200               0
1.73267               -0.5371665        -26.4136        -45.46891       -179.0436             -200               0             -200               0
1.73927               -0.5523236       -26.68065        -45.30108        177.1698             -200               0             -200               0
1.74587               -0.5678044         -26.952        -45.13516        173.4265             -200               0             -200               0
1.75248               -0.5836264        -27.2279        -44.97018        169.7272             -200               0             -200               0
1.75908               -0.5998109       -27.50863        -44.80515         166.072             -200               0             -200               0
1.76568               -0.6163861       -27.79445        -44.63906        162.4604             -200               0             -200               0
1.77228               -0.6333833       -28.08563        -44.47091        158.8908             -200               0             -200               0
1.77888               -0.6508383       -28.38243        -44.29969        155.3611             -200               0             -200               0
1.78548               -0.6687934       -28.68508        -44.12446        151.8682             -200               0             -200               0
1.79208               -0.6872917       -28.99384        -43.94431        148.4082             -200               0             -200               0
1.79868               -0.7063819        -29.3089         -43.7584        144.9765             -200               0             -200               0
1.80528               -0.7261158       -29.63047        -43.56601        141.5677             -200               0             -200               0
1.81188                -0.746547       -29.95871        -43.36649        138.1757             -200               0             -200               0
1.81848               -0.7677322       -30.29379        -43.15933        134.7941             -200               0             -200               0
1.82508               -0.7897289       -30.63584        -42.94418        131.4158             -200               0             -200               0
1.83168               -0.8125955       -30.98496        -42.72079        128.0337             -200               0             -200               0
1.83828               -0.8363925       -31.34123         -42.4891        124.6405             -200               0             -200               0
1.84488               -0.8611787       -31.70474        -42.24918        121.2288             -200               0             -200               0
1.85149                -0.887014       -32.07553        -42.00124        117.7918             -200               0             -200               0
1.85809               -0.9139563       -32.45364        -41.74565        114.3227             -200               0             -200               0
1.86469               -0.9420637        -32.8391        -41.48286        110.8153             -200               0             -200               0
1.87129               -0.9713924       -33.23193        -41.21347        107.2642             -200               0             -200               0
1.87789                -1.001997       -33.63213        -40.93812        103.6643             -200               0             -200               0
1.88449                -1.033931       -34.03974        -40.65754        100.0114             -200               0             -200               0
1.89109                -1.067249       -34.45478        -40.37251        96.30216             -200               0             -200               0
1.89769                   -1.102       -34.87727        -40.08381        92.53372             -200               0             -200               0
1.90429                -1.138238       -35.30726        -39.79228        88.70406             -200               0             -200               0
1.91089                -1.176012       -35.74482         -39.4987        84.81181             -200               0             -200               0
1.91749                -1.215376       -36.19004        -39.20387        80.85622             -200               0             -200               0
1.92409                -1.256383       -36.64303        -38.90855        76.83709             -200               0             -200               0
1.93069                -1.299088       -37.10393        -38.61347        72.75472             -200               0             -200               0
1.93729                -1.343552       -37.57292         -38.3193        68.60982             -200               0             -200               0
1.94389                -1.389837       -38.05017        -38.02669        64.40349             -200               0             -200               0
1.9505                 -1.438012       -38.53594        -37.73623        60.13711             -200               0             -200               0
1.9571                 -1.488152       -39.03048        -37.44845        55.81232             -200               0             -200               0
1.9637                 -1.540342       -39.53408        -37.16386        51.43094             -200               0             -200               0
1.9703                 -1.594671       -40.04706         -36.8829        46.99493             -200               0             -200               0
1.9769                 -1.651243       -40.56975        -36.60596        42.50638             -200               0             -200               0
1.9835                 -1.710172       -41.10251        -36.33341        37.96742             -200               0             -200               0
1.9901                 -1.771581       -41.64572        -36.06557        33.38024             -200               0             -200               0
1.9967                 -1.835611       -42.19973         -35.8027        28.74704             -200               0             -200               0
2.0033                 -1.902416       -42.76492        -35.54507        24.06999             -200               0             -200               0
2.0099                 -1.972163       -43.34167        -35.29287        19.35127             -200               0             -200               0
2.0165                  -2.04504        -43.9303         -35.0463        14.59302             -200               0             -200               0
2.0231                 -2.121245       -44.53113        -34.80552          9.7973             -200               0             -200               0
2.0297                    -2.201       -45.14446        -34.57066        4.966151             -200               0             -200               0
2.0363                 -2.284542        -45.7705        -34.34183       0.1015411             -200               0             -200               0
2.0429                 -2.372127       -46.40943        -34.11914       -4.794625             -200               0             -200               0
2.0495                 -2.464029       -47.06138        -33.90266       -9.720508             -200               0             -200               0
2.05611                -2.560542       -47.72636        -33.69245       -14.67434             -200               0             -200               0
2.06271                -2.661979       -48.40432        -33.48857       -19.65441             -200               0             -200               0
2.06931                -2.768674        -49.0951        -33.29106       -24.65908             -200               0             -200               0
2.07591                -2.880979       -49.79846        -33.09995       -29.68678             -200               0             -200               0
2.08251                -2.999268       -50.51399        -32.91526       -34.73599             -200               0             -200               0
2.08911                -3.123934       -51.24121          -32.737       -39.80528             -200               0             -200               0
2.09571                -3.255393       -51.97945        -32.56519       -44.89323             -200               0             -200               0
2.10231                -3.394082       -52.72792        -32.39982       -49.99852             -200               0             -200               0
2.10891                -3.540459       -53.48564         -32.2409       -55.11987             -200               0             -200               0
2.11551                 -3.69501       -54.25149        -32.08841       -60.25604             -200               0             -200               0
2.12211                -3.858242       -55.02412        -31.94235       -65.40583             -200               0             -200               0
2.12871                -4.030688       -55.80201         -31.8027       -70.56813             -200               0             -200               0
2.13531                -4.212916       -56.58337        -31.66944       -75.74181             -200               0             -200               0
2.14191                -4.405516        -57.3662        -31.54257       -80.92582             -200               0             -200               0
2.14851                -4.609118       -58.14822        -31.42206       -86.11913             -200               0             -200               0
2.15512                -4.824385       -58.92684        -31.30789       -91.32076             -200               0             -200               0
2.16172                -5.052026       -59.69912        -31.20004       -96.52973             -200               0             -200               0
2.16832                 -5.29279       -60.46175        -31.09849       -101.7451             -200               0             -200               0
2.17492                -5.547482       -61.21099        -31.00321        -106.966             -200               0             -200               0
2.18152                -5.816957       -61.94256        -30.91418       -112.1915             -200               0             -200               0
2.18812                -6.102141       -62.65163        -30.83138       -117.4208             -200               0             -200               0
2.19472                -6.404028       -63.33264        -30.75479       -122.6529             -200               0             -200               0
2.20132                -6.723693       -63.97927        -30.68439       -127.8872             -200               0             -200               0
2.20792                -7.062302       -64.58416        -30.62014       -133.1227             -200               0             -200               0
2.21452                -7.421121       -65.13883        -30.56203       -138.3586             -200               0             -200               0
2.22112                -7.801526       -65.63335        -30.51003       -143.5943             -200               0             -200               0
2.22772                 -8.20502       -66.05601        -30.46413       -148.8288             -200               0             -200               0
2.23432                -8.633234       -66.39298        -30.42429       -154.0614             -200               0             -200               0
2.24092                -9.087939        -66.6277         -30.3905       -159.2914             -200               0             -200               0
2.24752                -9.571042       -66.74018        -30.36273        -164.518             -200               0             -200               0
2.25413                -10.08458       -66.70617        -30.34097       -169.7404             -200               0             -200               0
2.26073                -10.63066       -66.49589        -30.32519       -174.9578             -200               0             -200               0
2.26733                -11.21143       -66.07252        -30.31536        179.8305             -200               0             -200               0
2.27393                -11.82888       -65.39016        -30.31147        174.6253             -200               0             -200               0
2.28053                -12.48462       -64.39126        -30.31349        169.4274             -200               0             -200               0
2.28713                -13.17938       -63.00347         -30.3214        164.2375             -200               0             -200               0
2.29373                -13.91229       -61.13594        -30.33518        159.0564             -200               0             -200               0