! TOUCHSTONE file generated by CST MICROWAVE STUDIO
! Date and time: Tue Mar 18 20:31:57 2025
! Project name: hairline.cst
! Parameters = {B=12.5; D=160; F=25; Feed=2.85625; Fracture=0.5; L=100; M=50; R=0.384908; S=1.5; Theta=270; length=57.125; wave=114.25}
! Header version: 2024
! Port assignment regex: !\s*Touchstone port\s*([0-9]+)\s*=\s*(CST MWS port|CST DES external port|CST DES block port)\s*(.+)\s* \(\"(.*)\"\)(\s*mode\s*([0-9]+))?.*
! Touchstone port assignment:
! Touchstone port 1 = CST MWS port 1 ("")
! Touchstone port 2 = CST MWS port 2 ("")
# GHz S DB R 50
1                    -0.01944905       -9.775436        -70.54434        116.5413             -200               0             -200               0
1.0076               -0.02045873       -9.876142         -70.7547        111.3504             -200               0             -200               0
1.01521              -0.02147681       -9.977353        -70.99672        106.3267             -200               0             -200               0
1.02281              -0.02249827        -10.0791          -71.272        101.4947             -200               0             -200               0
1.03042              -0.02351837       -10.18144         -71.5821        96.88521             -200               0             -200               0
1.03802              -0.02453122        -10.2844        -71.92848        92.53639             -200               0             -200               0
1.04563              -0.02553271       -10.38804        -72.31224        88.49601             -200               0             -200               0
1.05323              -0.02652116       -10.49242        -72.73374        84.82378             -200               0             -200               0
1.06084              -0.02749419        -10.5976        -73.19207        81.59397             -200               0             -200               0
1.06844              -0.02845039       -10.70365          -73.684        78.89797             -200               0             -200               0
1.07605               -0.0293918       -10.81063        -74.20251        76.84551             -200               0             -200               0
1.08365              -0.03031937       -10.91861        -74.73458        75.56218             -200               0             -200               0
1.09125              -0.03123561       -11.02766        -75.25825        75.17848             -200               0             -200               0
1.09886              -0.03214556       -11.13785        -75.73959        75.80346             -200               0             -200               0
1.10646              -0.03305435       -11.24923        -76.13136        77.47619             -200               0             -200               0
1.11407              -0.03396768       -11.36186        -76.37709        80.09959             -200               0             -200               0
1.12167              -0.03489347        -11.4758        -76.42353        83.38818             -200               0             -200               0
1.12928              -0.03583967        -11.5911        -76.23963        86.88552             -200               0             -200               0
1.13688              -0.03681507       -11.70778        -75.83036        90.07814             -200               0             -200               0
1.14449              -0.03782853        -11.8259        -75.23433        92.54732             -200               0             -200               0
1.15209              -0.03888971       -11.94546        -74.50725        94.05952             -200               0             -200               0
1.1597               -0.04000841        -12.0665        -73.70394        94.56031             -200               0             -200               0
1.1673               -0.04119422       -12.18902         -72.8681        94.11352             -200               0             -200               0
1.1749               -0.04245587       -12.31303         -72.0302        92.83802             -200               0             -200               0
1.18251              -0.04380337       -12.43851        -71.20943        90.86535             -200               0             -200               0
1.19011              -0.04524386       -12.56547        -70.41688        88.31815             -200               0             -200               0
1.19772              -0.04678561       -12.69389        -69.65828        85.30209             -200               0             -200               0
1.20532              -0.04843559       -12.82375        -68.93604        81.90467             -200               0             -200               0
1.21293              -0.05019785       -12.95502        -68.25057        78.19702             -200               0             -200               0
1.22053              -0.05207843       -13.08767        -67.60112         74.2365             -200               0             -200               0
1.22814              -0.05408047       -13.22169        -66.98639        70.06935             -200               0             -200               0
1.23574              -0.05620704       -13.35704        -66.40474        65.73295             -200               0             -200               0
1.24335              -0.05845814       -13.49369        -65.85447        61.25771             -200               0             -200               0
1.25095              -0.06083468       -13.63163        -65.33388        56.66852             -200               0             -200               0
1.25856               -0.0633358       -13.77084        -64.84134        51.98598             -200               0             -200               0
1.26616              -0.06595904       -13.91129        -64.37531        47.22724             -200               0             -200               0
1.27376              -0.06870265       -14.05298        -63.93438        42.40675             -200               0             -200               0
1.28137              -0.07156306       -14.19591        -63.51724        37.53682             -200               0             -200               0
1.28897              -0.07453542       -14.34008        -63.12271        32.62804             -200               0             -200               0
1.29658              -0.07761609       -14.48551        -62.74971        27.68962             -200               0             -200               0
1.30418              -0.08080088       -14.63222        -62.39723        22.72968             -200               0             -200               0
1.31179              -0.08408648       -14.78025        -62.06439        17.75546             -200               0             -200               0
1.31939              -0.08746756       -14.92963        -61.75036        12.77352             -200               0             -200               0
1.327                -0.09094142       -15.08041        -61.45439        7.789857             -200               0             -200               0
1.3346               -0.09450449       -15.23265        -61.17578        2.810044             -200               0             -200               0
1.34221              -0.09815557       -15.38641        -60.91389       -2.160669             -200               0             -200               0
1.34981               -0.1018934       -15.54178        -60.66814       -7.117272             -200               0             -200               0
1.35741               -0.1057193       -15.69882        -60.43796       -12.05492             -200               0             -200               0
1.36502               -0.1096336       -15.85761        -60.22284       -16.96888             -200               0             -200               0
1.37262               -0.1136402       -16.01825        -60.02225       -21.85446             -200               0             -200               0
1.38023               -0.1177436       -16.18083        -59.83572       -26.70696             -200               0             -200               0
1.38783               -0.1219499       -16.34543        -59.66276       -31.52166             -200               0             -200               0
1.39544               -0.1262665       -16.51213        -59.50288       -36.29375             -200               0             -200               0
1.40304               -0.1307037       -16.68103        -59.35558       -41.01831             -200               0             -200               0
1.41065               -0.1352707       -16.85222        -59.22034       -45.69029             -200               0             -200               0
1.41825               -0.1399804       -17.02575        -59.09662       -50.30452             -200               0             -200               0
1.42586               -0.1448462       -17.20172        -58.98381       -54.85561             -200               0             -200               0
1.43346               -0.1498823       -17.38018        -58.88128       -59.33809             -200               0             -200               0
1.44106               -0.1551042       -17.56118         -58.7883       -63.74628             -200               0             -200               0
1.44867               -0.1605279       -17.74479        -58.70406       -68.07444             -200               0             -200               0
1.45627               -0.1661695       -17.93103        -58.62767       -72.31672             -200               0             -200               0
1.46388                -0.172047       -18.11993         -58.5581       -76.46731             -200               0             -200               0
1.47148               -0.1781751       -18.31152         -58.4942       -80.52047             -200               0             -200               0
1.47909               -0.1845735       -18.50581        -58.43467       -84.47074             -200               0             -200               0
1.48669               -0.1912549       -18.70279        -58.37804       -88.31302             -200               0             -200               0
1.4943                -0.1982375       -18.90246        -58.32267       -92.04285             -200               0             -200               0
1.5019                -0.2055361        -19.1048        -58.26674       -95.65664             -200               0             -200               0
1.50951               -0.2131651        -19.3098        -58.20824       -99.15194             -200               0             -200               0
1.51711               -0.2211348       -19.51743        -58.14501       -102.5278             -200               0             -200               0
1.52471               -0.2294594       -19.72765        -58.07473       -105.7851             -200               0             -200               0
1.53232               -0.2381477       -19.94045        -57.99499       -108.9269             -200               0             -200               0
1.53992               -0.2472089       -20.15578        -57.90332       -111.9586             -200               0             -200               0
1.54753               -0.2566505       -20.37361        -57.79729       -114.8885             -200               0             -200               0
1.55513               -0.2664786       -20.59392        -57.67457       -117.7276             -200               0             -200               0
1.56274               -0.2766983       -20.81668        -57.53306       -120.4896             -200               0             -200               0
1.57034               -0.2873137       -21.04189        -57.37094        -123.191             -200               0             -200               0
1.57795               -0.2983263       -21.26952        -57.18682       -125.8504             -200               0             -200               0
1.58555               -0.3097373       -21.49957         -56.9798       -128.4877             -200               0             -200               0
1.59316               -0.3215497       -21.73206        -56.74948       -131.1239             -200               0             -200               0
1.60076               -0.3337629         -21.967        -56.49604       -133.7802             -200               0             -200               0
1.60837               -0.3463764       -22.20443        -56.22018       -136.4766             -200               0             -200               0
1.61597                -0.359392        -22.4444        -55.92309       -139.2319             -200               0             -200               0
1.62357               -0.3728094       -22.68696        -55.60638       -142.0627             -200               0             -200               0
1.63118               -0.3866297       -22.93219        -55.27195       -144.9831             -200               0             -200               0
1.63878               -0.4008569       -23.18016        -54.92195       -148.0044             -200               0             -200               0
1.64639               -0.4154931       -23.43097        -54.55863       -151.1352             -200               0             -200               0
1.65399               -0.4305439       -23.68474        -54.18427       -154.3813             -200               0             -200               0
1.6616                -0.4460156       -23.94158         -53.8011       -157.7461             -200               0             -200               0
1.6692                -0.4619173       -24.20163        -53.41126       -161.2307             -200               0             -200               0
1.67681               -0.4782595       -24.46501        -53.01674       -164.8346             -200               0             -200               0
1.68441               -0.4950552       -24.73186        -52.61934       -168.5556             -200               0             -200               0
1.69202               -0.5123203       -25.00234         -52.2207       -172.3906             -200               0             -200               0
1.69962               -0.5300723       -25.27661        -51.82225       -176.3352             -200               0             -200               0
1.70722               -0.5483323       -25.55479        -51.42526        179.6151             -200               0             -200               0
1.71483               -0.5671239       -25.83706         -51.0308        175.4654             -200               0             -200               0
1.72243               -0.5864732       -26.12355         -50.6398        171.2211             -200               0             -200               0
1.73004               -0.6064077       -26.41442        -50.25304        166.8875             -200               0             -200               0
1.73764               -0.6269588        -26.7098        -49.87117          162.47             -200               0             -200               0
1.74525               -0.6481586       -27.00982        -49.49471        157.9738             -200               0             -200               0
1.75285               -0.6700438        -27.3146         -49.1241        153.4038             -200               0             -200               0
1.76046               -0.6926502       -27.62427         -48.7597         148.765             -200               0             -200               0
1.76806               -0.7160171       -27.93892        -48.40176         144.062             -200               0             -200               0
1.77567               -0.7401829       -28.25865         -48.0505        139.2989             -200               0             -200               0
1.78327                -0.765191       -28.58354        -47.70608          134.48             -200               0             -200               0
1.79087               -0.7910827       -28.91367        -47.36861         129.609             -200               0             -200               0
1.79848                -0.817902        -29.2491        -47.03816        124.6896             -200               0             -200               0
1.80608               -0.8456899       -29.58989        -46.71476         119.725             -200               0             -200               0
1.81369               -0.8744924       -29.93607        -46.39844        114.7184             -200               0             -200               0
1.82129               -0.9043531        -30.2877        -46.08919        109.6726             -200               0             -200               0
1.8289                -0.9353158       -30.64481        -45.78697        104.5904             -200               0             -200               0
1.8365                -0.9674256       -31.00744        -45.49176        99.47418             -200               0             -200               0
1.84411                -1.000726       -31.37562         -45.2035        94.32636             -200               0             -200               0
1.85171                -1.035263       -31.74937        -44.92214        89.14907             -200               0             -200               0
1.85932                 -1.07108       -32.12875        -44.64759        83.94431             -200               0             -200               0
1.86692                -1.108222       -32.51378         -44.3798        78.71396             -200               0             -200               0
1.87452                -1.146737       -32.90453        -44.11869        73.45974             -200               0             -200               0
1.88213                -1.186669       -33.30105        -43.86416        68.18328             -200               0             -200               0
1.88973                -1.228068       -33.70341        -43.61616        62.88607             -200               0             -200               0
1.89734                -1.270983        -34.1117        -43.37458        57.56952             -200               0             -200               0
1.90494                -1.315466       -34.52602        -43.13935        52.23495             -200               0             -200               0
1.91255                -1.361573       -34.94648        -42.91038        46.88356             -200               0             -200               0
1.92015                -1.409361       -35.37321         -42.6876        41.51651             -200               0             -200               0
1.92776                -1.458893       -35.80636        -42.47092        36.13486             -200               0             -200               0
1.93536                -1.510237        -36.2461        -42.26026        30.73961             -200               0             -200               0
1.94297                -1.563463        -36.6926        -42.05554        25.33171             -200               0             -200               0
1.95057                -1.618651       -37.14605        -41.85668        19.91203             -200               0             -200               0
1.95817                -1.675886       -37.60667        -41.66362        14.48141             -200               0             -200               0
1.96578                -1.735262       -38.07465        -41.47627        9.040615             -200               0             -200               0
1.97338                 -1.79688       -38.55025        -41.29457        3.590389             -200               0             -200               0
1.98099                -1.860851       -39.03366        -41.11844       -1.868575             -200               0             -200               0
1.98859                -1.927295       -39.52513        -40.94783       -7.335623             -200               0             -200               0
1.9962                 -1.996345       -40.02487        -40.78266       -12.81014             -200               0             -200               0
2.0038                 -2.068142        -40.5331        -40.62287       -18.29153             -200               0             -200               0
2.01141                 -2.14284       -41.05002         -40.4684       -23.77925             -200               0             -200               0
2.01901                -2.220608        -41.5758        -40.31919       -29.27276             -200               0             -200               0
2.02662                -2.301626        -42.1106        -40.17519       -34.77156             -200               0             -200               0
2.03422                -2.386087       -42.65454        -40.03635       -40.27517             -200               0             -200               0
2.04183                -2.474202       -43.20769         -39.9026       -45.78314             -200               0             -200               0
2.04943                 -2.56619       -43.77009         -39.7739       -51.29502             -200               0             -200               0
2.05703                -2.662294       -44.34171        -39.65021        -56.8104             -200               0             -200               0
2.06464                -2.762767       -44.92245        -39.53147       -62.32887             -200               0             -200               0
2.07224                -2.867879        -45.5122        -39.41764       -67.85006             -200               0             -200               0
2.07985                -2.977919       -46.11069        -39.30868       -73.37358             -200               0             -200               0
2.08745                -3.093194       -46.71762        -39.20455       -78.89908             -200               0             -200               0
2.09506                -3.214024       -47.33256         -39.1052       -84.42622             -200               0             -200               0
2.10266                -3.340755       -47.95501        -39.01061       -89.95466             -200               0             -200               0
2.11027                -3.473748       -48.58432        -38.92074       -95.48408             -200               0             -200               0
2.11787                -3.613386       -49.21974        -38.83555       -101.0142             -200               0             -200               0
2.12548                -3.760074       -49.86037        -38.75501       -106.5446             -200               0             -200               0
2.13308                -3.914241       -50.50516        -38.67908       -112.0751             -200               0             -200               0
2.14068                -4.076341        -51.1529        -38.60775       -117.6054             -200               0             -200               0
2.14829                -4.246852       -51.80219        -38.54099       -123.1351             -200               0             -200               0
2.15589                -4.426285       -52.45141        -38.47876        -128.664             -200               0             -200               0
2.1635                 -4.615179       -53.09877        -38.42104       -134.1919             -200               0             -200               0
2.1711                 -4.814108       -53.74215        -38.36781       -139.7184             -200               0             -200               0
2.17871                -5.023684        -54.3792        -38.31904       -145.2434             -200               0             -200               0
2.18631                -5.244559       -55.00723        -38.27473       -150.7664             -200               0             -200               0
2.19392                -5.477431       -55.62319        -38.23484       -156.2873             -200               0             -200               0
2.20152                -5.723052       -56.22358        -38.19936       -161.8058             -200               0             -200               0
2.20913                -5.982225       -56.80443        -38.16827       -167.3217             -200               0             -200               0
2.21673                -6.255818       -57.36119        -38.14155       -172.8347             -200               0             -200               0
2.22433                -6.544767       -57.88862         -38.1192       -178.3445             -200               0             -200               0
2.23194                -6.850089       -58.38071         -38.1012        176.1491             -200               0             -200               0
2.23954                 -7.17288       -58.83045        -38.08753        170.6464             -200               0             -200               0
2.24715                 -7.51434       -59.22969        -38.07819        165.1476             -200               0             -200               0
2.25475                -7.875763       -59.56888        -38.07316        159.6529             -200               0             -200               0
2.26236                -8.258561       -59.83671        -38.07243        154.1627             -200               0             -200               0
2.26996                -8.664257       -60.01983          -38.076        148.6773             -200               0             -200               0
2.27757                  -9.0945       -60.10216        -38.08387        143.1967             -200               0             -200               0
2.28517                -9.551047       -60.06437        -38.09601        137.7214             -200               0             -200               0
2.29278                -10.03575       -59.88298        -38.11244        132.2516             -200               0             -200               0
2.30038                -10.55051       -59.52922        -38.13314        126.7876             -200               0             -200               0
2.30798                -11.09719       -58.96767        -38.15811        121.3296             -200               0             -200               0
2.31559                -11.67746       -58.15437        -38.18735        115.8779             -200               0             -200               0
2.32319                -12.29255       -57.03458        -38.22085        110.4328             -200               0             -200               0
2.3308                 -12.94277       -55.54005        -38.25862        104.9947             -200               0             -200               0
2.3384                 -13.62679       -53.58601        -38.30065        99.56374             -200               0             -200               0
2.34601                -14.34041       -51.06853        -38.34695        94.14029             -200               0             -200               0
2.35361                 -15.0747       -47.86396        -38.39752        88.72466             -200               0             -200               0
2.36122                -15.81332       -43.83367        -38.45235        83.31716             -200               0             -200               0
2.36882                -16.52905       -38.84068        -38.51146        77.91812             -200               0             -200               0
2.37643                -17.18077       -32.78654        -38.57484        72.52787             -200               0             -200               0
2.38403                -17.71356         -25.674        -38.64249        67.14675             -200               0             -200               0
2.39163                -18.06648       -17.68068        -38.71443        61.77514             -200               0             -200               0
2.39924                -18.19013       -9.193914        -38.79066        56.41337             -200               0             -200               0
2.40684                -18.06717      -0.7456464        -38.87117        51.06183             -200               0             -200               0
2.41445                -17.72078        7.145444        -38.95598        45.72089             -200               0             -200               0
2.42205                -17.20347        14.12264         -39.0451        40.39096             -200               0             -200               0
2.42966                -16.57613        20.03889        -39.13852        35.07245             -200               0             -200               0
2.43726                -15.89179        24.91165        -39.23626        29.76577             -200               0             -200               0
2.44487                -15.18927        28.84855        -39.33832        24.47136             -200               0             -200               0
2.45247                -14.49387        31.98852         -39.4447        19.18966             -200               0             -200               0
2.46008                -13.82056        34.46849        -39.55542        13.92115             -200               0             -200               0
2.46768                -13.17734        36.40912        -39.67048        8.666304             -200               0             -200               0
2.47529                -12.56781        37.91115        -39.78989        3.425615             -200               0             -200               0
2.48289                -11.99295        39.05648        -39.91364       -1.800404             -200               0             -200               0
2.49049                -11.45223        39.91096        -40.04175        -7.01122             -200               0             -200               0