! TOUCHSTONE file generated by CST MICROWAVE STUDIO
! Date and time: Tue Mar 18 20:31:40 2025
! Project name: hairline.cst
! Parameters = {B=12.5; D=160; F=25; Feed=2.85625; Fracture=2; L=100; M=50; R=0.384908; S=1.5; Theta=0; length=57.125; wave=114.25}
! Header version: 2024
! Port assignment regex: !\s*Touchstone port\s*([0-9]+)\s*=\s*(CST MWS port|CST DES external port|CST DES block port)\s*(.+)\s* \(\"(.*)\"\)(\s*mode\s*([0-9]+))?.*
! Touchstone port assignment:
! Touchstone port 1 = CST MWS port 1 ("")
! Touchstone port 2 = CST MWS port 2 ("")
# GHz S DB R 50
1                    -0.01935972       -10.00893        -70.64995        117.1759             -200               0             -200               0
1.0076               -0.02034998       -10.11137        -70.85314        112.0441             -200               0             -200               0
1.01521              -0.02135069       -10.21434        -71.08696        107.0823             -200               0             -200               0
1.02281              -0.02235687       -10.31785        -71.35275        102.3153             -200               0             -200               0
1.03042               -0.0233623       -10.42195        -71.65178        97.77359             -200               0             -200               0
1.03802              -0.02436257       -10.52669        -71.98512         93.4948             -200               0             -200               0
1.04563              -0.02535416       -10.63212        -72.35339        89.52561             -200               0             -200               0
1.05323              -0.02633488       -10.73829         -72.7564        85.92366             -200               0             -200               0
1.06084              -0.02730399       -10.84526         -73.1925        82.75966             -200               0             -200               0
1.06844              -0.02825741        -10.9531        -73.65772        80.11905             -200               0             -200               0
1.07605              -0.02919884       -11.06186        -74.14429        78.10208             -200               0             -200               0
1.08365              -0.03012827       -11.17162        -74.63875           76.82             -200               0             -200               0
1.09125              -0.03104973       -11.28243        -75.11951         76.3833             -200               0             -200               0
1.09886              -0.03196785       -11.39437        -75.55461        76.87669             -200               0             -200               0
1.10646              -0.03288458       -11.50748        -75.90136        78.31698             -200               0             -200               0
1.11407              -0.03380831       -11.62183        -76.11049        80.60025             -200               0             -200               0
1.12167              -0.03474591       -11.73746        -76.13699        83.46507             -200               0             -200               0
1.12928              -0.03570489       -11.85442        -75.95509        86.51238             -200               0             -200               0
1.13688              -0.03669293       -11.97276        -75.56891        89.29813             -200               0             -200               0
1.14449              -0.03771843        -12.0925        -75.01061        91.45345             -200               0             -200               0
1.15209              -0.03879251       -12.21367        -74.32763         92.7598             -200               0             -200               0
1.1597               -0.03992192       -12.33629        -73.56818        93.15039             -200               0             -200               0
1.1673               -0.04111776       -12.46037        -72.77218        92.66531             -200               0             -200               0
1.1749               -0.04238765       -12.58591         -71.9686        91.39992             -200               0             -200               0
1.18251              -0.04374056       -12.71292        -71.17655        89.46723             -200               0             -200               0
1.19011              -0.04518404       -12.84138        -70.40766        86.97692             -200               0             -200               0
1.19772              -0.04672688       -12.97129        -69.66843        84.02622             -200               0             -200               0
1.20532               -0.0483739       -13.10262        -68.96199         80.6974             -200               0             -200               0
1.21293              -0.05013161       -13.23536        -68.28942        77.05845             -200               0             -200               0
1.22053              -0.05200344       -13.36948        -67.65054        73.16495             -200               0             -200               0
1.22814              -0.05399449       -13.50495        -67.04446         69.0622             -200               0             -200               0
1.23574              -0.05610619       -13.64176        -66.46993        64.78712             -200               0             -200               0
1.24335              -0.05834009       -13.77987        -65.92551        60.36999             -200               0             -200               0
1.25095               -0.0606964       -13.91927        -65.40972        55.83576             -200               0             -200               0
1.25856              -0.06317487       -14.05994        -64.92112        51.20513             -200               0             -200               0
1.26616              -0.06577334       -14.20186         -64.4583        46.49546             -200               0             -200               0
1.27376              -0.06849003       -14.34503        -64.01996        41.72139             -200               0             -200               0
1.28137              -0.07132192       -14.48945         -63.6049        36.89545             -200               0             -200               0
1.28897              -0.07426512       -14.63513          -63.212        32.02843             -200               0             -200               0
1.29658              -0.07731694       -14.78207        -62.84022        27.12972             -200               0             -200               0
1.30418              -0.08047233       -14.93031        -62.48862        22.20763             -200               0             -200               0
1.31179              -0.08372733       -15.07986        -62.15635        17.26955             -200               0             -200               0
1.31939              -0.08707969       -15.23078        -61.84261        12.32219             -200               0             -200               0
1.327                -0.09052527        -15.3831        -61.54667        7.371664             -200               0             -200               0
1.3346               -0.09406145        -15.5369        -61.26786        2.423665             -200               0             -200               0
1.34221              -0.09768774       -15.69221        -61.00556       -2.516457             -200               0             -200               0
1.34981               -0.1014016       -15.84912        -60.75918       -7.443611             -200               0             -200               0
1.35741               -0.1052055       -16.00771        -60.52817       -12.35288             -200               0             -200               0
1.36502               -0.1091005       -16.16805        -60.31202       -17.23948             -200               0             -200               0
1.37262               -0.1130886       -16.33022        -60.11022       -22.09866             -200               0             -200               0
1.38023               -0.1171756       -16.49431        -59.92228       -26.92571             -200               0             -200               0
1.38783               -0.1213673        -16.6604        -59.74772       -31.71588             -200               0             -200               0
1.39544               -0.1256716       -16.82859        -59.58605       -36.46436             -200               0             -200               0
1.40304               -0.1300962       -16.99895        -59.43677       -41.16625             -200               0             -200               0
1.41065               -0.1346527       -17.17155        -59.29935       -45.81653             -200               0             -200               0
1.41825               -0.1393525        -17.3465        -59.17325       -50.41006             -200               0             -200               0
1.42586               -0.1442079       -17.52384        -59.05786       -54.94155             -200               0             -200               0
1.43346               -0.1492331       -17.70364        -58.95253       -59.40558             -200               0             -200               0
1.44106               -0.1544434       -17.88596        -58.85653       -63.79662             -200               0             -200               0
1.44867               -0.1598531       -18.07084        -58.76907       -68.10903             -200               0             -200               0
1.45627               -0.1654796       -18.25833        -58.68923       -72.33714             -200               0             -200               0
1.46388               -0.1713381       -18.44845        -58.61601       -76.47532             -200               0             -200               0
1.47148               -0.1774466       -18.64123        -58.54824       -80.51804             -200               0             -200               0
1.47909               -0.1838191       -18.83667        -58.48465       -84.46007             -200               0             -200               0
1.48669               -0.1904731       -19.03477        -58.42379       -88.29657             -200               0             -200               0
1.4943                -0.1974232       -19.23554        -58.36403       -92.02334             -200               0             -200               0
1.5019                 -0.204685       -19.43897        -58.30359       -95.63707             -200               0             -200               0
1.50951               -0.2122705       -19.64502        -58.24052       -99.13558             -200               0             -200               0
1.51711               -0.2201941       -19.85369         -58.1727       -102.5181             -200               0             -200               0
1.52471               -0.2284656       -20.06493         -58.0979       -105.7858             -200               0             -200               0
1.53232               -0.2370964       -20.27874        -58.01377       -108.9417             -200               0             -200               0
1.53992               -0.2460951       -20.49506        -57.91795       -111.9914             -200               0             -200               0
1.54753               -0.2554685       -20.71389         -57.8081        -114.943             -200               0             -200               0
1.55513               -0.2652243       -20.93518        -57.68198       -117.8072             -200               0             -200               0
1.56274               -0.2753657       -21.15893        -57.53758       -120.5974             -200               0             -200               0
1.57034               -0.2858982       -21.38511        -57.37318       -123.3295             -200               0             -200               0
1.57795               -0.2968245       -21.61371        -57.18746       -126.0214             -200               0             -200               0
1.58555                -0.308146       -21.84474        -56.97954       -128.6923             -200               0             -200               0
1.59316               -0.3198635       -22.07821        -56.74906       -131.3624             -200               0             -200               0
1.60076                -0.331979       -22.31413        -56.49617       -134.0519             -200               0             -200               0
1.60837               -0.3444923       -22.55253        -56.22154       -136.7802             -200               0             -200               0
1.61597               -0.3574048       -22.79347         -55.9263       -139.5653             -200               0             -200               0
1.62357               -0.3707167         -23.037        -55.61197       -142.4233             -200               0             -200               0
1.63118               -0.3844299       -23.28319        -55.28037       -145.3679             -200               0             -200               0
1.63878               -0.3985473       -23.53211        -54.93354       -148.4101             -200               0             -200               0
1.64639               -0.4130733       -23.78387        -54.57364       -151.5584             -200               0             -200               0
1.65399               -0.4280115       -24.03856        -54.20287       -154.8186             -200               0             -200               0
1.6616                -0.4433677       -24.29631        -53.82336       -158.1942             -200               0             -200               0
1.6692                -0.4591521       -24.55723         -53.4372       -161.6865             -200               0             -200               0
1.67681               -0.4753761       -24.82146        -53.04629       -165.2952             -200               0             -200               0
1.68441               -0.4920504       -25.08914        -52.65242       -169.0184             -200               0             -200               0
1.69202               -0.5091908       -25.36041        -52.25718       -172.8532             -200               0             -200               0
1.69962               -0.5268161       -25.63542        -51.86197       -176.7957             -200               0             -200               0
1.70722               -0.5449452       -25.91432        -51.46804        179.1585             -200               0             -200               0
1.71483               -0.5636013       -26.19725        -51.07646        175.0143             -200               0             -200               0
1.72243               -0.5828095       -26.48436        -50.68815        170.7767             -200               0             -200               0
1.73004               -0.6025977        -26.7758        -50.30388        166.4509             -200               0             -200               0
1.73764               -0.6229937       -27.07169        -49.92431        162.0421             -200               0             -200               0
1.74525               -0.6440334       -27.37218        -49.54997        157.5553             -200               0             -200               0
1.75285               -0.6657491       -27.67738         -49.1813        152.9954             -200               0             -200               0
1.76046               -0.6881769       -27.98741        -48.81866        148.3671             -200               0             -200               0
1.76806               -0.7113544       -28.30237        -48.46233        143.6748             -200               0             -200               0
1.77567               -0.7353199       -28.62235        -48.11252        138.9229             -200               0             -200               0
1.78327               -0.7601156       -28.94745        -47.76941        134.1152             -200               0             -200               0
1.79087               -0.7857819       -29.27774         -47.4331        129.2557             -200               0             -200               0
1.79848               -0.8123606       -29.61328        -47.10369        124.3477             -200               0             -200               0
1.80608               -0.8398959       -29.95413        -46.78121        119.3946             -200               0             -200               0
1.81369               -0.8684294       -30.30034         -46.4657        114.3994             -200               0             -200               0
1.82129               -0.8980058       -30.65197        -46.15714        109.3651             -200               0             -200               0
1.8289                -0.9286679       -31.00903        -45.85553        104.2942             -200               0             -200               0
1.8365                -0.9604585       -31.37158        -45.56083        99.18927             -200               0             -200               0
1.84411               -0.9934247       -31.73965          -45.273         94.0526             -200               0             -200               0
1.85171                -1.027608       -32.11328        -44.99197        88.88634             -200               0             -200               0
1.85932                -1.063053       -32.49249        -44.71769        83.69248             -200               0             -200               0
1.86692                -1.099805       -32.87736        -44.45009        78.47288             -200               0             -200               0
1.87452                 -1.13791       -33.26791        -44.18911        73.22927             -200               0             -200               0
1.88213                -1.177414       -33.66421        -43.93465        67.96326             -200               0             -200               0
1.88973                -1.218363       -34.06634        -43.68665        62.67635             -200               0             -200               0
1.89734                -1.260808       -34.47438        -43.44502        57.36995             -200               0             -200               0
1.90494                -1.304802       -34.88842        -43.20968        52.04535             -200               0             -200               0
1.91255                -1.350396       -35.30859        -42.98057        46.70379             -200               0             -200               0
1.92015                 -1.39765       -35.73501        -42.75758        41.34641             -200               0             -200               0
1.92776                -1.446625       -36.16783        -42.54066        35.97427             -200               0             -200               0
1.93536                -1.497386        -36.6072        -42.32971        30.58838             -200               0             -200               0
1.94297                -1.550005        -37.0533        -42.12466        25.18968             -200               0             -200               0
1.95057                -1.604559       -37.50634        -41.92544        19.77905             -200               0             -200               0
1.95817                -1.661133       -37.96649        -41.73197        14.35732             -200               0             -200               0
1.96578                -1.719818       -38.43399        -41.54419         8.92528             -200               0             -200               0
1.97338                -1.780712       -38.90904        -41.36201        3.483658             -200               0             -200               0
1.98099                -1.843925       -39.39188        -41.18538       -1.966848             -200               0             -200               0
1.98859                -1.909576       -39.88273        -41.01423       -7.425579             -200               0             -200               0
1.9962                  -1.97779       -40.38181        -40.84849       -12.89192             -200               0             -200               0
2.0038                 -2.048711       -40.88935         -40.6881       -18.36527             -200               0             -200               0
2.01141                -2.122487       -41.40551        -40.53301       -23.84508             -200               0             -200               0
2.01901                -2.199284       -41.93051        -40.38315       -29.33082             -200               0             -200               0
2.02662                -2.279276       -42.46449        -40.23848       -34.82197             -200               0             -200               0
2.03422                -2.362655       -43.00757        -40.09893       -40.31807             -200               0             -200               0
2.04183                -2.449625       -43.55984        -39.96445       -45.81865             -200               0             -200               0
2.04943                -2.540402       -44.12134          -39.835       -51.32327             -200               0             -200               0
2.05703                -2.635224       -44.69206        -39.71053       -56.83151             -200               0             -200               0
2.06464                -2.734336       -45.27193        -39.59099       -62.34297             -200               0             -200               0
2.07224                -2.838005       -45.86082        -39.47633       -67.85726             -200               0             -200               0
2.07985                -2.946513       -46.45851        -39.36653         -73.374             -200               0             -200               0
2.08745                 -3.06016       -47.06469        -39.26152       -78.89285             -200               0             -200               0
2.09506                -3.179263         -47.679        -39.16129       -84.41345             -200               0             -200               0
2.10266                -3.304155       -48.30095        -39.06578       -89.93546             -200               0             -200               0
2.11027                -3.435194       -48.92991        -38.97497       -95.45857             -200               0             -200               0
2.11787                -3.572755       -49.56518        -38.88882       -100.9825             -200               0             -200               0
2.12548                -3.717232       -50.20591        -38.80731       -106.5068             -200               0             -200               0
2.13308                -3.869049       -50.85108        -38.73038       -112.0313             -200               0             -200               0
2.14068                -4.028647       -51.49955        -38.65803       -117.5557             -200               0             -200               0
2.14829                -4.196496       -52.14996        -38.59023       -123.0797             -200               0             -200               0
2.15589                -4.373094       -52.80079        -38.52693       -128.6031             -200               0             -200               0
2.1635                 -4.558971       -53.45029        -38.46813       -134.1254             -200               0             -200               0
2.1711                 -4.754685       -54.09645         -38.4138       -139.6466             -200               0             -200               0
2.17871                -4.960837       -54.73702        -38.36392       -145.1662             -200               0             -200               0
2.18631                -5.178062        -55.3694        -38.31846       -150.6841             -200               0             -200               0
2.19392                -5.407043       -55.99069         -38.2774       -156.1999             -200               0             -200               0
2.20152                 -5.64851       -56.59753        -38.24074       -161.7135             -200               0             -200               0
2.20913                -5.903248       -57.18614        -38.20844       -167.2246             -200               0             -200               0
2.21673                -6.172102       -57.75214         -38.1805       -172.7328             -200               0             -200               0
2.22433                -6.455984       -58.29058         -38.1569       -178.2381             -200               0             -200               0
2.23194                -6.755881       -58.79568        -38.13763          176.26             -200               0             -200               0
2.23954                -7.072863       -59.26081        -38.12268        170.7616             -200               0             -200               0
2.24715                -7.408091       -59.67821        -38.11202         165.267             -200               0             -200               0
2.25475                -7.762827       -60.03885        -38.10566        159.7764             -200               0             -200               0
2.26236                 -8.13844       -60.33205        -38.10359        154.2902             -200               0             -200               0
2.26996                -8.536418       -60.54517        -38.10579        148.8085             -200               0             -200               0
2.27757                -8.958364       -60.66311        -38.11226        143.3316             -200               0             -200               0
2.28517                -9.405999       -60.66773        -38.12299        137.8599             -200               0             -200               0
2.29278                -9.881149       -60.53704        -38.13798        132.3934             -200               0             -200               0
2.30038                 -10.3857       -60.24414        -38.15722        126.9327             -200               0             -200               0
2.30798                -10.92153       -59.75604        -38.18071        121.4778             -200               0             -200               0
2.31559                -11.49042       -59.03183        -38.20844         116.029             -200               0             -200               0
2.32319                -12.09375       -58.02067        -38.24042        110.5868             -200               0             -200               0
2.3308                 -12.73221       -56.65914        -38.27665        105.1512             -200               0             -200               0
2.3384                 -13.40512       -54.86832        -38.31711        99.72273             -200               0             -200               0
2.34601                -14.10939       -52.55091        -38.36182        94.30157             -200               0             -200               0
2.35361                -14.83792       -49.58973        -38.41077        88.88805             -200               0             -200               0
2.36122                -15.57717       -45.85015        -38.46397        83.48247             -200               0             -200               0
2.36882                -16.30393       -41.19192        -38.52141        78.08517             -200               0             -200               0
2.37643                -16.98195       -35.49834        -38.58311        72.69647             -200               0             -200               0
2.38403                -17.56054       -28.73044        -38.64906         67.3167             -200               0             -200               0
2.39163                -17.97934       -21.00064        -38.71928        61.94622             -200               0             -200               0
2.39924                -18.18278        -12.6278        -38.79375        56.58537             -200               0             -200               0
2.40684                -18.14107       -4.109612        -38.87249        51.23452             -200               0             -200               0
2.41445                -17.86424        4.011877        -38.95551        45.89406             -200               0             -200               0
2.42205                -17.39719        11.31546        -39.04281        40.56435             -200               0             -200               0
2.42966                -16.80019        17.58611        -39.13439        35.24581             -200               0             -200               0
2.43726                   -16.13        22.79459        -39.23027        29.93885             -200               0             -200               0
2.44487                -15.43033        27.02613        -39.33044        24.64389             -200               0             -200               0
2.45247                -14.73064        30.41394        -39.43492        19.36137             -200               0             -200               0
2.46008                -14.04894        33.09781        -39.54371        14.09175             -200               0             -200               0
2.46768                -13.39523        35.20445        -39.65683        8.835483             -200               0             -200               0
2.47529                -12.77435        36.84121        -39.77426        3.593067             -200               0             -200               0
2.48289                  -12.188        38.09595        -39.89603       -1.635002             -200               0             -200               0
2.49049                -11.63606         39.0395        -40.02214       -6.848203             -200               0             -200               0