! TOUCHSTONE file generated by CST MICROWAVE STUDIO
! Date and time: Tue Mar 18 20:31:41 2025
! Project name: hairline.cst
! Parameters = {B=12.5; D=160; F=15; Feed=2.85625; Fracture=2; L=100; M=30; R=0.384908; S=1.5; Theta=90; length=57.125; wave=114.25}
! Header version: 2024
! Port assignment regex: !\s*Touchstone port\s*([0-9]+)\s*=\s*(CST MWS port|CST DES external port|CST DES block port)\s*(.+)\s* \(\"(.*)\"\)(\s*mode\s*([0-9]+))?.*
! Touchstone port assignment:
! Touchstone port 1 = CST MWS port 1 ("")
! Touchstone port 2 = CST MWS port 2 ("")
# GHz S DB R 50
1                     -0.0215228        -9.98892         -66.3022        174.2287             -200               0             -200               0
1.00658               -0.0221605       -10.07618        -66.34211        168.5122             -200               0             -200               0
1.01316              -0.02278288       -10.16406        -66.41842        162.9035             -200               0             -200               0
1.01974              -0.02339192       -10.25259        -66.53266        157.4129             -200               0             -200               0
1.02632              -0.02399117       -10.34183         -66.6867        152.0541             -200               0             -200               0
1.03289              -0.02458324       -10.43181        -66.88274        146.8445             -200               0             -200               0
1.03947              -0.02517233       -10.52258        -67.12336        141.8064             -200               0             -200               0
1.04605              -0.02576431       -10.61417        -67.41154        136.9689             -200               0             -200               0
1.05263              -0.02636465        -10.7066        -67.75065        132.3694             -200               0             -200               0
1.05921              -0.02698049        -10.7999         -68.1444        128.0573             -200               0             -200               0
1.06579              -0.02761663       -10.89409        -68.59667        124.0976             -200               0             -200               0
1.07237              -0.02828161       -10.98918        -69.11111        120.5769             -200               0             -200               0
1.07895                -0.028981       -11.08517        -69.69038        117.6116             -200               0             -200               0
1.08553              -0.02972222       -11.18206        -70.33445        115.3577             -200               0             -200               0
1.09211              -0.03051072       -11.27985        -71.03752        114.0222             -200               0             -200               0
1.09868               -0.0313527       -11.37851        -71.78216        113.8702             -200               0             -200               0
1.10526              -0.03225296       -11.47803        -72.52976        115.2101             -200               0             -200               0
1.11184              -0.03321584       -11.57838        -73.20779        118.3223             -200               0             -200               0
1.11842              -0.03424533       -11.67954        -73.70257        123.2798             -200               0             -200               0
1.125                -0.03534407       -11.78148        -73.87983        129.6831             -200               0             -200               0
1.13158              -0.03651298       -11.88417        -73.64837        136.5553             -200               0             -200               0
1.13816              -0.03775269       -11.98757        -73.02359        142.6983             -200               0             -200               0
1.14474              -0.03906263       -12.09165        -72.11564        147.2748             -200               0             -200               0
1.15132              -0.04044074       -12.19639        -71.05767        150.0345             -200               0             -200               0
1.15789               -0.0418857       -12.30177        -69.95258        151.1303             -200               0             -200               0
1.16447               -0.0433926       -12.40775        -68.86251        150.8627             -200               0             -200               0
1.17105              -0.04495952       -12.51433        -67.81905        149.5332             -200               0             -200               0
1.17763              -0.04657886       -12.62149        -66.83555        147.3923             -200               0             -200               0
1.18421              -0.04824779       -12.72924        -65.91562        144.6335             -200               0             -200               0
1.19079              -0.04995885       -12.83757        -65.05809        141.4024             -200               0             -200               0
1.19737               -0.0517064       -12.94649        -64.25967        137.8077             -200               0             -200               0
1.20395              -0.05348563       -13.05603         -63.5163        133.9313             -200               0             -200               0
1.21053              -0.05528994       -13.16622        -62.82383        129.8351             -200               0             -200               0
1.21711              -0.05711475       -13.27708        -62.17831         125.567             -200               0             -200               0
1.22368              -0.05895556       -13.38866        -61.57613        121.1641             -200               0             -200               0
1.23026              -0.06080838         -13.501        -61.01405        116.6559             -200               0             -200               0
1.23684              -0.06266967       -13.61416         -60.4892        112.0661             -200               0             -200               0
1.24342              -0.06453824        -13.7282        -59.99901        107.4139             -200               0             -200               0
1.25                 -0.06641324       -13.84317        -59.54125        102.7155             -200               0             -200               0
1.25658              -0.06829425       -13.95914        -59.11392        97.98438             -200               0             -200               0
1.26316              -0.07018388       -14.07618        -58.71528        93.23213             -200               0             -200               0
1.26974              -0.07208475       -14.19434        -58.34375        88.46889             -200               0             -200               0
1.27632              -0.07400051       -14.31368        -57.99794         83.7037             -200               0             -200               0
1.28289              -0.07593549       -14.43427         -57.6766         78.9447             -200               0             -200               0
1.28947               -0.0778966       -14.55617        -57.37861        74.19944             -200               0             -200               0
1.29605              -0.07989225       -14.67941        -57.10294        69.47498             -200               0             -200               0
1.30263              -0.08192811       -14.80404        -56.84864        64.77805             -200               0             -200               0
1.30921              -0.08401347        -14.9301        -56.61484         60.1152             -200               0             -200               0
1.31579              -0.08615723       -15.05762         -56.4007        55.49285             -200               0             -200               0
1.32237              -0.08836923       -15.18661        -56.20544        50.91743             -200               0             -200               0
1.32895              -0.09065645        -15.3171        -56.02827        46.39537             -200               0             -200               0
1.33553              -0.09303088       -15.44909        -55.86843        41.93321             -200               0             -200               0
1.34211              -0.09549738       -15.58258        -55.72512        37.53764             -200               0             -200               0
1.34868              -0.09806771       -15.71755        -55.59751         33.2155             -200               0             -200               0
1.35526               -0.1007466       -15.85399        -55.48473        28.97382             -200               0             -200               0
1.36184               -0.1035405       -15.99189        -55.38583        24.81979             -200               0             -200               0
1.36842               -0.1064534       -16.13122        -55.29977        20.76076             -200               0             -200               0
1.375                 -0.1094929       -16.27195         -55.2254        16.80416             -200               0             -200               0
1.38158               -0.1126579       -16.41406         -55.1614        12.95742             -200               0             -200               0
1.38816               -0.1159529       -16.55752        -55.10631        9.227842             -200               0             -200               0
1.39474               -0.1193756        -16.7023        -55.05849        5.622409             -200               0             -200               0
1.40132               -0.1229258       -16.84839        -55.01606        2.147556             -200               0             -200               0
1.40789               -0.1266011       -16.99576        -54.97694       -1.191129             -200               0             -200               0
1.41447                -0.130398       -17.14441        -54.93881       -4.389271             -200               0             -200               0
1.42105               -0.1343128       -17.29432        -54.89913       -7.444119             -200               0             -200               0
1.42763               -0.1383402       -17.44552        -54.85513       -10.35501             -200               0             -200               0
1.43421               -0.1424745         -17.598        -54.80392       -13.12384             -200               0             -200               0
1.44079               -0.1467095        -17.7518        -54.74246       -15.75554             -200               0             -200               0
1.44737                -0.151041       -17.90695        -54.66776       -18.25842             -200               0             -200               0
1.45395                -0.155461        -18.0635        -54.57689       -20.64441             -200               0             -200               0
1.46053               -0.1599662        -18.2215        -54.46718       -22.92911             -200               0             -200               0
1.46711               -0.1645518       -18.38103        -54.33636       -25.13152             -200               0             -200               0
1.47368               -0.1692137       -18.54215        -54.18262       -27.27353             -200               0             -200               0
1.48026               -0.1739497       -18.70496        -54.00483       -29.37915             -200               0             -200               0
1.48684               -0.1787579       -18.86955        -53.80252       -31.47347             -200               0             -200               0
1.49342               -0.1836402       -19.03602        -53.57594       -33.58157             -200               0             -200               0
1.5                   -0.1885976       -19.20448        -53.32604       -35.72736             -200               0             -200               0
1.50658               -0.1936371       -19.37502         -53.0544       -37.93261             -200               0             -200               0
1.51316               -0.1987615       -19.54778        -52.76308       -40.21615             -200               0             -200               0
1.51974               -0.2039799       -19.72284        -52.45452       -42.59337             -200               0             -200               0
1.52632               -0.2093017       -19.90033         -52.1314       -45.07597             -200               0             -200               0
1.53289               -0.2147402       -20.08034        -51.79649         -47.672             -200               0             -200               0
1.53947                -0.220306       -20.26298        -51.45253       -50.38612             -200               0             -200               0
1.54605               -0.2260167       -20.44833        -51.10218       -53.21997             -200               0             -200               0
1.55263               -0.2318862       -20.63647         -50.7479       -56.17259             -200               0             -200               0
1.55921               -0.2379323       -20.82748        -50.39192       -59.24094             -200               0             -200               0
1.56579               -0.2441732       -21.02143        -50.03626       -62.42036             -200               0             -200               0
1.57237               -0.2506284       -21.21835        -49.68266       -65.70498             -200               0             -200               0
1.57895               -0.2573147       -21.41829        -49.33262       -69.08807             -200               0             -200               0
1.58553               -0.2642543       -21.62129        -48.98744       -72.56237             -200               0             -200               0
1.59211               -0.2714633       -21.82735        -48.64815       -76.12032             -200               0             -200               0
1.59868                 -0.27896       -22.03648        -48.31564       -79.75425             -200               0             -200               0
1.60526               -0.2867621       -22.24868        -47.99058       -83.45649             -200               0             -200               0
1.61184               -0.2948845       -22.46393        -47.67353       -87.21954             -200               0             -200               0
1.61842               -0.3033436       -22.68223        -47.36488       -91.03606             -200               0             -200               0
1.625                 -0.3121532       -22.90355        -47.06493       -94.89898             -200               0             -200               0
1.63158               -0.3213219       -23.12785        -46.77384       -98.80149             -200               0             -200               0
1.63816               -0.3308618       -23.35513        -46.49173       -102.7371             -200               0             -200               0
1.64474                -0.340781       -23.58535        -46.21859       -106.6995             -200               0             -200               0
1.65132               -0.3510856       -23.81849        -45.95438       -110.6827             -200               0             -200               0
1.65789               -0.3617806       -24.05454        -45.69896       -114.6812             -200               0             -200               0
1.66447                -0.372869       -24.29349        -45.45216       -118.6895             -200               0             -200               0
1.67105               -0.3843542       -24.53535        -45.21375       -122.7025             -200               0             -200               0
1.67763                -0.396234       -24.78013        -44.98343       -126.7153             -200               0             -200               0
1.68421               -0.4085114       -25.02787        -44.76089       -130.7232             -200               0             -200               0
1.69079               -0.4211855       -25.27861        -44.54575        -134.722             -200               0             -200               0
1.69737               -0.4342554       -25.53241        -44.33758       -138.7074             -200               0             -200               0
1.70395               -0.4477216       -25.78935        -44.13591       -142.6758             -200               0             -200               0
1.71053               -0.4615836       -26.04954        -43.94025       -146.6234             -200               0             -200               0
1.71711               -0.4758436       -26.31308        -43.75004        -150.547             -200               0             -200               0
1.72368               -0.4905036       -26.58011        -43.56468       -154.4436             -200               0             -200               0
1.73026               -0.5055696       -26.85077        -43.38356       -158.3107             -200               0             -200               0
1.73684               -0.5210473       -27.12524        -43.20598       -162.1459             -200               0             -200               0
1.74342               -0.5369483       -27.40368        -43.03126       -165.9473             -200               0             -200               0
1.75                  -0.5532818       -27.68629        -42.85863       -169.7137             -200               0             -200               0
1.75658               -0.5700665       -27.97326        -42.68735        -173.444             -200               0             -200               0
1.76316                 -0.58732       -28.26482        -42.51661       -177.1378             -200               0             -200               0
1.76974               -0.6050652       -28.56116         -42.3456        179.2047             -200               0             -200               0
1.77632               -0.6233281       -28.86251        -42.17352        175.5828             -200               0             -200               0
1.78289               -0.6421377       -29.16908        -41.99957        171.9952             -200               0             -200               0
1.78947               -0.6615287       -29.48108        -41.82293        168.4398             -200               0             -200               0
1.79605               -0.6815373       -29.79873        -41.64286        164.9142             -200               0             -200               0
1.80263                -0.702206       -30.12223        -41.45864        161.4151             -200               0             -200               0
1.80921               -0.7235769       -30.45176         -41.2696        157.9385             -200               0             -200               0
1.81579               -0.7456973       -30.78752        -41.07515        154.4803             -200               0             -200               0
1.82237               -0.7686185       -31.12966        -40.87477        151.0355             -200               0             -200               0
1.82895               -0.7923922       -31.47836        -40.66806        147.5988             -200               0             -200               0
1.83553               -0.8170745       -31.83373        -40.45471        144.1647             -200               0             -200               0
1.84211               -0.8427215       -32.19593         -40.2345        140.7273             -200               0             -200               0
1.84868               -0.8693923       -32.56504        -40.00736        137.2808             -200               0             -200               0
1.85526               -0.8971476       -32.94118         -39.7733        133.8191             -200               0             -200               0
1.86184               -0.9260494       -33.32441        -39.53248        130.3366             -200               0             -200               0
1.86842                -0.956159       -33.71483        -39.28513        126.8278             -200               0             -200               0
1.875                 -0.9875422       -34.11247         -39.0316        123.2873             -200               0             -200               0
1.88158                -1.020261       -34.51739         -38.7723        119.7104             -200               0             -200               0
1.88816                -1.054381       -34.92963        -38.50775        116.0928             -200               0             -200               0
1.89474                -1.089969       -35.34924         -38.2385        112.4307             -200               0             -200               0
1.90132                -1.127089       -35.77623        -37.96516        108.7207             -200               0             -200               0
1.90789                 -1.16581       -36.21065        -37.68837        104.9602             -200               0             -200               0
1.91447                -1.206201       -36.65252        -37.40878        101.1471             -200               0             -200               0
1.92105                -1.248332       -37.10188        -37.12706         97.2797             -200               0             -200               0
1.92763                -1.292273       -37.55877        -36.84388        93.35694             -200               0             -200               0
1.93421                -1.338099       -38.02325        -36.55987        89.37818             -200               0             -200               0
1.94079                -1.385887       -38.49535        -36.27568        85.34323             -200               0             -200               0
1.94737                -1.435719       -38.97515         -35.9919        81.25229             -200               0             -200               0
1.95395                -1.487678       -39.46272         -35.7091        77.10588             -200               0             -200               0
1.96053                -1.541853       -39.95813        -35.42782        72.90484             -200               0             -200               0
1.96711                -1.598341       -40.46148        -35.14857        68.65021             -200               0             -200               0
1.97368                -1.657242       -40.97286        -34.87181         64.3433             -200               0             -200               0
1.98026                -1.718663       -41.49236        -34.59796        59.98554             -200               0             -200               0
1.98684                -1.782723       -42.02008        -34.32741        55.57849             -200               0             -200               0
1.99342                -1.849545       -42.55612        -34.06053        51.12384             -200               0             -200               0
2                      -1.919264       -43.10057        -33.79763        46.62333             -200               0             -200               0
2.00658                -1.992026        -43.6535          -33.539        42.07874             -200               0             -200               0
2.01316                -2.067985       -44.21498        -33.28489        37.49191             -200               0             -200               0
2.01974                 -2.14731       -44.78504        -33.03554        32.86465             -200               0             -200               0
2.02632                 -2.23018        -45.3637        -32.79116        28.19878             -200               0             -200               0
2.03289                -2.316787       -45.95092        -32.55191        23.49611             -200               0             -200               0
2.03947                -2.407338       -46.54665        -32.31797        18.75842             -200               0             -200               0
2.04605                -2.502054       -47.15075        -32.08946        13.98746             -200               0             -200               0
2.05263                -2.601168       -47.76304         -31.8665        9.184916             -200               0             -200               0
2.05921                -2.704931       -48.38328        -31.64919        4.352458             -200               0             -200               0
2.06579                 -2.81361       -49.01112        -31.43764      -0.5083022             -200               0             -200               0
2.07237                -2.927483       -49.64614         -31.2319       -5.395803             -200               0             -200               0
2.07895                 -3.04685       -50.28785        -31.03204       -10.30853             -200               0             -200               0
2.08553                -3.172023       -50.93559        -30.83812       -15.24502             -200               0             -200               0
2.09211                -3.303334       -51.58863        -30.65017       -20.20386             -200               0             -200               0
2.09868                -3.441132       -52.24608        -30.46824       -25.18369             -200               0             -200               0
2.10526                -3.585783       -52.90692        -30.29235       -30.18319             -200               0             -200               0
2.11184                -3.737674       -53.56995        -30.12252       -35.20109             -200               0             -200               0
2.11842                -3.897208       -54.23381        -29.95876       -40.23617             -200               0             -200               0
2.125                   -4.06481       -54.89694         -29.8011       -45.28725             -200               0             -200               0
2.13158                -4.240929       -55.55756        -29.64952       -50.35319             -200               0             -200               0
2.13816                 -4.42603       -56.21367        -29.50405       -55.43288             -200               0             -200               0
2.14474                -4.620605       -56.86299        -29.36467       -60.52526             -200               0             -200               0
2.15132                -4.825171       -57.50297        -29.23139        -65.6293             -200               0             -200               0
2.15789                -5.040269       -58.13071         -29.1042       -70.74401             -200               0             -200               0
2.16447                -5.266472       -58.74295         -28.9831       -75.86841             -200               0             -200               0
2.17105                -5.504376       -59.33604        -28.86807       -81.00156             -200               0             -200               0
2.17763                -5.754615       -59.90582        -28.75911       -86.14256             -200               0             -200               0
2.18421                 -6.01785       -60.44763        -28.65621       -91.29051             -200               0             -200               0
2.19079                -6.294782       -60.95615        -28.55935       -96.44454             -200               0             -200               0
2.19737                -6.586145       -61.42537        -28.46853       -101.6038             -200               0             -200               0
2.20395                 -6.89271       -61.84841        -28.38373       -106.7675             -200               0             -200               0
2.21053                -7.215282       -62.21743        -28.30495       -111.9347             -200               0             -200               0
2.21711                -7.554703       -62.52343        -28.23216       -117.1047             -200               0             -200               0
2.22368                -7.911842       -62.75601        -28.16536       -122.2768             -200               0             -200               0
2.23026                -8.287585       -62.90317        -28.10453         -127.45             -200               0             -200               0
2.23684                -8.682824       -62.95092        -28.04966       -132.6237             -200               0             -200               0
2.24342                 -9.09843       -62.88297        -28.00075        -137.797             -200               0             -200               0
2.25                    -9.53521       -62.68019        -27.95777       -142.9693             -200               0             -200               0
2.25658                -9.993855       -62.32013        -27.92071       -148.1397             -200               0             -200               0
2.26316                -10.47485        -61.7763        -27.88957       -153.3075             -200               0             -200               0
2.26974                -10.97833       -61.01751        -27.86433        -158.472             -200               0             -200               0
2.27632                 -11.5039       -60.00705        -27.84498       -163.6323             -200               0             -200               0
2.28289                -12.05036       -58.70195        -27.83151       -168.7878             -200               0             -200               0
2.28947                -12.61529       -57.05251         -27.8239       -173.9376             -200               0             -200               0