! TOUCHSTONE file generated by CST MICROWAVE STUDIO
! Date and time: Tue Mar 18 20:31:52 2025
! Project name: hairline.cst
! Parameters = {B=12.5; D=160; F=15; Feed=2.85625; Fracture=1; L=100; M=30; R=0.384908; S=1.5; Theta=270; length=57.125; wave=114.25}
! Header version: 2024
! Port assignment regex: !\s*Touchstone port\s*([0-9]+)\s*=\s*(CST MWS port|CST DES external port|CST DES block port)\s*(.+)\s* \(\"(.*)\"\)(\s*mode\s*([0-9]+))?.*
! Touchstone port assignment:
! Touchstone port 1 = CST MWS port 1 ("")
! Touchstone port 2 = CST MWS port 2 ("")
# GHz S DB R 50
1                    -0.02146966       -9.738119        -66.37838        174.7878             -200               0             -200               0
1.00658              -0.02211028       -9.823763        -66.41514        169.1085             -200               0             -200               0
1.01316              -0.02273677       -9.910019         -66.4881         163.538             -200               0             -200               0
1.01974              -0.02335017       -9.996928        -66.59873        158.0869             -200               0             -200               0
1.02632              -0.02395403       -10.08454        -66.74881        152.7693             -200               0             -200               0
1.03289              -0.02455058       -10.17289        -66.94046        147.6026             -200               0             -200               0
1.03947              -0.02514503       -10.26202        -67.17612        142.6098             -200               0             -200               0
1.04605              -0.02574175       -10.35196        -67.45861        137.8201             -200               0             -200               0
1.05263              -0.02634775       -10.44274        -67.79109        133.2713             -200               0             -200               0
1.05921              -0.02696765       -10.53439        -68.17697        129.0128             -200               0             -200               0
1.06579              -0.02760878       -10.62692        -68.61972        125.1095             -200               0             -200               0
1.07237              -0.02827713       -10.72034        -69.12249        121.6474             -200               0             -200               0
1.07895              -0.02898035       -10.81467         -69.6872        118.7409             -200               0             -200               0
1.08553              -0.02972375       -10.90989        -70.31289         116.542             -200               0             -200               0
1.09211              -0.03051429       -11.00599        -70.99266        115.2498             -200               0             -200               0
1.09868              -0.03135658       -11.10298        -71.70806        115.1142             -200               0             -200               0
1.10526              -0.03225745       -11.20082        -72.42028        116.4186             -200               0             -200               0
1.11184              -0.03321965        -11.2995        -73.05917        119.4083             -200               0             -200               0
1.11842              -0.03424767       -11.39899         -73.5184        124.1252             -200               0             -200               0
1.125                -0.03534303       -11.49926         -73.6756         130.179             -200               0             -200               0
1.13158              -0.03650873       -11.60028         -73.4489        136.6692             -200               0             -200               0
1.13816              -0.03774422       -11.70202        -72.85132        142.5004             -200               0             -200               0
1.14474              -0.03904951       -11.80445        -71.98126        146.8885             -200               0             -200               0
1.15132              -0.04042344       -11.90754        -70.96085        149.5718             -200               0             -200               0
1.15789               -0.0418632       -12.01127        -69.88762        150.6651             -200               0             -200               0
1.16447              -0.04336593       -12.11561        -68.82259        150.4354             -200               0             -200               0
1.17105              -0.04492698       -12.22056        -67.79818        149.1621             -200               0             -200               0
1.17763              -0.04654156        -12.3261          -66.829        147.0835             -200               0             -200               0
1.18421              -0.04820511       -12.43222        -65.91979         144.387             -200               0             -200               0
1.19079              -0.04991183       -12.53893         -65.0703        141.2153             -200               0             -200               0
1.19737              -0.05165613       -12.64625        -64.27792         137.676             -200               0             -200               0
1.20395              -0.05343174       -12.75418        -63.53909        133.8507             -200               0             -200               0
1.21053              -0.05523397       -12.86276        -62.85002        129.8016             -200               0             -200               0
1.21711              -0.05705755       -12.97202        -62.20701        125.5766             -200               0             -200               0
1.22368              -0.05889733         -13.082        -61.60665        121.2134             -200               0             -200               0
1.23026              -0.06075052       -13.19275        -61.04584        116.7418             -200               0             -200               0
1.23684              -0.06261319       -13.30432        -60.52182        112.1858             -200               0             -200               0
1.24342              -0.06448362       -13.41676        -60.03211        107.5651             -200               0             -200               0
1.25                 -0.06636165       -13.53013        -59.57452        102.8959             -200               0             -200               0
1.25658              -0.06824685        -13.6445        -59.14713        98.19208             -200               0             -200               0
1.26316              -0.07014046       -13.75993         -58.7482        93.46538             -200               0             -200               0
1.26974              -0.07204619       -13.87647        -58.37619        88.72615             -200               0             -200               0
1.27632              -0.07396624        -13.9942        -58.02975        83.98354             -200               0             -200               0
1.28289              -0.07590751       -14.11318        -57.70763        79.24586             -200               0             -200               0
1.28947              -0.07787497       -14.23344        -57.40873        74.52072             -200               0             -200               0
1.29605              -0.07987586       -14.35505        -57.13201         69.8153             -200               0             -200               0
1.30263              -0.08191712       -14.47805        -56.87656        65.13639             -200               0             -200               0
1.30921              -0.08400748       -14.60247        -56.64149         60.4906             -200               0             -200               0
1.31579              -0.08615638       -14.72835        -56.42598         55.8844             -200               0             -200               0
1.32237              -0.08837206        -14.8557        -56.22924        51.32421             -200               0             -200               0
1.32895              -0.09066412       -14.98454        -56.05049        46.81652             -200               0             -200               0
1.33553              -0.09304078       -15.11487        -55.88897        42.36784             -200               0             -200               0
1.34211              -0.09551062       -15.24671        -55.74386        37.98486             -200               0             -200               0
1.34868              -0.09808162       -15.38002        -55.61436        33.67439             -200               0             -200               0
1.35526               -0.1007615       -15.51482        -55.49959        29.44343             -200               0             -200               0
1.36184               -0.1035553       -15.65106         -55.3986        25.29909             -200               0             -200               0
1.36842               -0.1064691       -15.78874        -55.31035        21.24867             -200               0             -200               0
1.375                 -0.1095069       -15.92783        -55.23369        17.29951             -200               0             -200               0
1.38158               -0.1126698        -16.0683        -55.16731        13.45894             -200               0             -200               0
1.38816               -0.1159608       -16.21012        -55.10978        9.734137             -200               0             -200               0
1.39474               -0.1193805       -16.35327        -55.05943        6.131974             -200               0             -200               0
1.40132               -0.1229275       -16.49773        -55.01444        2.658754             -200               0             -200               0
1.40789               -0.1265984       -16.64348        -54.97272      -0.6800674             -200               0             -200               0
1.41447               -0.1303924       -16.79051          -54.932       -3.880232             -200               0             -200               0
1.42105               -0.1343032       -16.93882        -54.88976       -6.939087             -200               0             -200               0
1.42763               -0.1383273       -17.08841         -54.8433       -9.856038             -200               0             -200               0
1.43421               -0.1424582        -17.2393        -54.78974         -12.633             -200               0             -200               0
1.44079               -0.1466916       -17.39151        -54.72613       -15.27486             -200               0             -200               0
1.44737               -0.1510205       -17.54508        -54.64951       -17.78978             -200               0             -200               0
1.45395               -0.1554394       -17.70004        -54.55702        -20.1895             -200               0             -200               0
1.46053               -0.1599442       -17.85647        -54.44605       -22.48929             -200               0             -200               0
1.46711               -0.1645293       -18.01442        -54.31433       -24.70776             -200               0             -200               0
1.47368               -0.1691917       -18.17398        -54.16011       -26.86635             -200               0             -200               0
1.48026                -0.173929       -18.33522        -53.98226       -28.98854             -200               0             -200               0
1.48684               -0.1787409       -18.49824        -53.78029       -31.09892             -200               0             -200               0
1.49342               -0.1836263       -18.66314        -53.55445       -33.22209             -200               0             -200               0
1.5                   -0.1885891       -18.83003        -53.30562       -35.38154             -200               0             -200               0
1.50658               -0.1936324         -18.999        -53.03533       -37.59871             -200               0             -200               0
1.51316               -0.1987625       -19.17018        -52.74559        -39.8922             -200               0             -200               0
1.51974               -0.2039871       -19.34367        -52.43877       -42.27728             -200               0             -200               0
1.52632               -0.2093162       -19.51958        -52.11748       -44.76563             -200               0             -200               0
1.53289               -0.2147608       -19.69801        -51.78443       -47.36537             -200               0             -200               0
1.53947               -0.2203341       -19.87906        -51.44233       -50.08128             -200               0             -200               0
1.54605               -0.2260518       -20.06282        -51.09378       -52.91516             -200               0             -200               0
1.55263               -0.2319275       -20.24937        -50.74121       -55.86626             -200               0             -200               0
1.55921               -0.2379806       -20.43879        -50.38685       -58.93174             -200               0             -200               0
1.56579               -0.2442285       -20.63114        -50.03267       -62.10716             -200               0             -200               0
1.57237               -0.2506891       -20.82646        -49.68042       -65.38682             -200               0             -200               0
1.57895               -0.2573818        -21.0248        -49.33159       -68.76419             -200               0             -200               0
1.58553               -0.2643251        -21.2262        -48.98748       -72.23218             -200               0             -200               0
1.59211               -0.2715384       -21.43066        -48.64913       -75.78335             -200               0             -200               0
1.59868               -0.2790388       -21.63819        -48.31742       -79.41017             -200               0             -200               0
1.60526               -0.2868434       -21.84879        -47.99304       -83.10508             -200               0             -200               0
1.61184                -0.294969       -22.06245        -47.67654       -86.86065             -200               0             -200               0
1.61842               -0.3034303       -22.27916        -47.36834       -90.66964             -200               0             -200               0
1.625                 -0.3122386       -22.49889        -47.06872       -94.52504             -200               0             -200               0
1.63158               -0.3214094       -22.72162        -46.77788       -98.42008             -200               0             -200               0
1.63816               -0.3309493       -22.94733        -46.49591       -102.3483             -200               0             -200               0
1.64474               -0.3408685       -23.17598        -46.22284       -106.3035             -200               0             -200               0
1.65132               -0.3511725       -23.40756         -45.9586       -110.2797             -200               0             -200               0
1.65789               -0.3618667       -23.64207         -45.7031       -114.2714             -200               0             -200               0
1.66447               -0.3729543       -23.87948        -45.45614        -118.273             -200               0             -200               0
1.67105               -0.3844389       -24.11981        -45.21751       -122.2796             -200               0             -200               0
1.67763               -0.3963194       -24.36307        -44.98693       -126.2863             -200               0             -200               0
1.68421               -0.4085974       -24.60929        -44.76406       -130.2884             -200               0             -200               0
1.69079               -0.4212724       -24.85853        -44.54854       -134.2816             -200               0             -200               0
1.69737                -0.434344       -25.11083        -44.33995       -138.2618             -200               0             -200               0
1.70395               -0.4478127       -25.36629        -44.13783       -142.2252             -200               0             -200               0
1.71053               -0.4616778       -25.62499        -43.94168       -146.1681             -200               0             -200               0
1.71711               -0.4759423       -25.88706        -43.75095       -150.0874             -200               0             -200               0
1.72368               -0.4906076       -26.15262        -43.56504       -153.9801             -200               0             -200               0
1.73026               -0.5056795       -26.42182        -43.38334       -157.8436             -200               0             -200               0
1.73684               -0.5211656       -26.69483        -43.20518       -161.6755             -200               0             -200               0
1.74342               -0.5370743       -26.97182        -43.02985       -165.4741             -200               0             -200               0
1.75                  -0.5534183       -27.25298        -42.85661        -169.238             -200               0             -200               0
1.75658               -0.5702138       -27.53851        -42.68471       -172.9661             -200               0             -200               0
1.76316               -0.5874787       -27.82863        -42.51335       -176.6582             -200               0             -200               0
1.76974               -0.6052367       -28.12353        -42.34173        179.6857             -200               0             -200               0
1.77632               -0.6235127       -28.42345        -42.16906        176.0649             -200               0             -200               0
1.78289               -0.6423366       -28.72859        -41.99451        172.4779             -200               0             -200               0
1.78947               -0.6617412       -29.03916        -41.81732        168.9229             -200               0             -200               0
1.79605               -0.6817661       -29.35538        -41.63672        165.3973             -200               0             -200               0
1.80263               -0.7024502       -29.67746        -41.45199        161.8979             -200               0             -200               0
1.80921               -0.7238381       -30.00558        -41.26248        158.4209             -200               0             -200               0
1.81579               -0.7459754       -30.33992         -41.0676        154.9619             -200               0             -200               0
1.82237               -0.7689142       -30.68066        -40.86685        151.5161             -200               0             -200               0
1.82895               -0.7927057       -31.02795         -40.6598        148.0783             -200               0             -200               0
1.83553               -0.8174056       -31.38194        -40.44615        144.6428             -200               0             -200               0
1.84211               -0.8430716       -31.74274        -40.22571        141.2041             -200               0             -200               0
1.84868               -0.8697609       -32.11048        -39.99837        137.7561             -200               0             -200               0
1.85526               -0.8975366       -32.48525        -39.76418        134.2931             -200               0             -200               0
1.86184               -0.9264574       -32.86714        -39.52325        130.8092             -200               0             -200               0
1.86842               -0.9565877        -33.2562        -39.27585         127.299             -200               0             -200               0
1.875                 -0.9879923       -33.65252         -39.0223        123.7573             -200               0             -200               0
1.88158                -1.020733       -34.05613        -38.76303        120.1794             -200               0             -200               0
1.88816                -1.054876       -34.46708        -38.49853        116.5608             -200               0             -200               0
1.89474                -1.090488        -34.8854        -38.22936        112.8979             -200               0             -200               0
1.90132                -1.127634       -35.31113        -37.95612        109.1873             -200               0             -200               0
1.90789                -1.166383       -35.74431        -37.67945        105.4264             -200               0             -200               0
1.91447                -1.206802       -36.18496            -37.4         101.613             -200               0             -200               0
1.92105                -1.248964       -36.63312        -37.11843        97.74546             -200               0             -200               0
1.92763                -1.292938       -37.08884         -36.8354        93.82276             -200               0             -200               0
1.93421                -1.338801       -37.55216        -36.55156        89.84424             -200               0             -200               0
1.94079                -1.386629       -38.02313        -36.26752        85.80969             -200               0             -200               0
1.94737                -1.436502       -38.50182         -35.9839        81.71928             -200               0             -200               0
1.95395                -1.488508       -38.98831        -35.70126        77.57354             -200               0             -200               0
1.96053                -1.542733       -39.48266        -35.42014        73.37327             -200               0             -200               0
1.96711                -1.599275       -39.98498        -35.14103        69.11955             -200               0             -200               0
1.97368                -1.658234       -40.49534        -34.86441        64.81362             -200               0             -200               0
1.98026                -1.719721       -41.01386        -34.59069        60.45692             -200               0             -200               0
1.98684                 -1.78385       -41.54063        -34.32027        56.05101             -200               0             -200               0
1.99342                -1.850748       -42.07573         -34.0535        51.59755             -200               0             -200               0
2                      -1.920549       -42.61927         -33.7907        47.09828             -200               0             -200               0
2.00658                  -1.9934       -43.17131        -33.53216        42.55497             -200               0             -200               0
2.01316                -2.069455       -43.73193        -33.27814        37.96944             -200               0             -200               0
2.01974                -2.148883       -44.30116        -33.02887        33.34351             -200               0             -200               0
2.02632                -2.231864         -44.879        -32.78456        28.67898             -200               0             -200               0
2.03289                -2.318592       -45.46544        -32.54537        23.97765             -200               0             -200               0
2.03947                -2.409273        -46.0604        -32.31148        19.24131             -200               0             -200               0
2.04605                -2.504128       -46.66374        -32.08302        14.47168             -200               0             -200               0
2.05263                -2.603393       -47.27531         -31.8601        9.670461             -200               0             -200               0
2.05921                -2.707318       -47.89484        -31.64283        4.839314             -200               0             -200               0
2.06579                -2.816169       -48.52199        -31.43131     -0.02015369             -200               0             -200               0
2.07237                -2.930228       -49.15635         -31.2256       -4.906383             -200               0             -200               0
2.07895                -3.049794        -49.7974        -31.02577       -9.817861             -200               0             -200               0
2.08553                -3.175181       -50.44451        -30.83187       -14.75313             -200               0             -200               0
2.09211                 -3.30672       -51.09693        -30.64394       -19.71078             -200               0             -200               0
2.09868                -3.444764       -51.75377        -30.46202       -24.68945             -200               0             -200               0
2.10526                -3.589678       -52.41401        -30.28615       -29.68781             -200               0             -200               0
2.11184                 -3.74185       -53.07645        -30.11633       -34.70461             -200               0             -200               0
2.11842                -3.901685       -53.73972        -29.95259       -39.73863             -200               0             -200               0
2.125                   -4.06961       -54.40226        -29.79494       -44.78867             -200               0             -200               0
2.13158                -4.246075        -55.0623        -29.64339       -49.85359             -200               0             -200               0
2.13816                -4.431546       -55.71781        -29.49793       -54.93231             -200               0             -200               0
2.14474                -4.626518       -56.36652        -29.35857       -60.02376             -200               0             -200               0
2.15132                -4.831511       -57.00586        -29.22532       -65.12689             -200               0             -200               0
2.15789                -5.047068       -57.63294        -29.09815       -70.24071             -200               0             -200               0
2.16447                -5.273762       -58.24449        -28.97708       -75.36426             -200               0             -200               0
2.17105                -5.512196       -58.83683        -28.86208        -80.4966             -200               0             -200               0
2.17763                -5.763003       -59.40581        -28.75316        -85.6368             -200               0             -200               0
2.18421                -6.026851       -59.94673        -28.65029       -90.78398             -200               0             -200               0
2.19079                -6.304444       -60.45426        -28.55348       -95.93727             -200               0             -200               0
2.19737                 -6.59652       -60.92237        -28.46272       -101.0958             -200               0             -200               0
2.20395                -6.903855       -61.34414        -28.37798       -106.2588             -200               0             -200               0
2.21053                -7.227261       -61.71172        -28.29925       -111.4253             -200               0             -200               0
2.21711                -7.567584       -62.01604        -28.22653       -116.5947             -200               0             -200               0
2.22368                  -7.9257       -62.24665        -28.15981       -121.7661             -200               0             -200               0
2.23026                -8.302503       -62.39149        -28.09907       -126.9387             -200               0             -200               0
2.23684                -8.698894       -62.43648        -28.04429       -132.1118             -200               0             -200               0
2.24342                 -9.11575        -62.3652        -27.99547       -137.2845             -200               0             -200               0
2.25                   -9.553888       -62.15841         -27.9526       -142.4562             -200               0             -200               0
2.25658                -10.01401       -61.79349        -27.91566        -147.626             -200               0             -200               0
2.26316                -10.49659       -61.24371        -27.88465       -152.7933             -200               0             -200               0
2.26974                -11.00179       -60.47763        -27.85954       -157.9572             -200               0             -200               0
2.27632                -11.52919       -59.45817        -27.84033        -163.117             -200               0             -200               0
2.28289                -12.07759       -58.14197        -27.82701       -168.2719             -200               0             -200               0
2.28947                -12.64453        -56.4788        -27.81956       -173.4211             -200               0             -200               0