! TOUCHSTONE file generated by CST MICROWAVE STUDIO
! Date and time: Tue Mar 18 20:31:38 2025
! Project name: hairline.cst
! Parameters = {B=12.5; D=160; F=25; Feed=2.85625; Fracture=1; L=100; M=30; R=0.384908; S=1.5; Theta=0; length=57.125; wave=114.25}
! Header version: 2024
! Port assignment regex: !\s*Touchstone port\s*([0-9]+)\s*=\s*(CST MWS port|CST DES external port|CST DES block port)\s*(.+)\s* \(\"(.*)\"\)(\s*mode\s*([0-9]+))?.*
! Touchstone port assignment:
! Touchstone port 1 = CST MWS port 1 ("")
! Touchstone port 2 = CST MWS port 2 ("")
# GHz S DB R 50
1                    -0.02106021       -9.723203        -66.35982        162.8561             -200               0             -200               0
1.00658              -0.02164056       -9.808456        -66.39873        157.1837             -200               0             -200               0
1.01316              -0.02219423       -9.894382        -66.47128        151.6318             -200               0             -200               0
1.01974              -0.02272499       -9.981039        -66.57855         146.212             -200               0             -200               0
1.02632              -0.02323709       -10.06849        -66.72177        140.9395             -200               0             -200               0
1.03289              -0.02373601       -10.15677        -66.90238         135.833             -200               0             -200               0
1.03947              -0.02422825       -10.24594        -67.12194        130.9162             -200               0             -200               0
1.04605              -0.02472169       -10.33604        -67.38209        126.2187             -200               0             -200               0
1.05263              -0.02522526        -10.4271        -67.68445         121.778             -200               0             -200               0
1.05921              -0.02574665       -10.51914        -68.03045        117.6414             -200               0             -200               0
1.06579              -0.02629532       -10.61218        -68.42097        113.8688             -200               0             -200               0
1.07237              -0.02688099       -10.70621        -68.85577        110.5357             -200               0             -200               0
1.07895              -0.02751204       -10.80125         -69.3326        107.7364             -200               0             -200               0
1.08553              -0.02819814       -10.89728        -69.84562        105.5874             -200               0             -200               0
1.09211              -0.02894771       -10.99427        -70.38309         104.226             -200               0             -200               0
1.09868              -0.02976631        -11.0922          -70.924        103.8027             -200               0             -200               0
1.10526              -0.03066218       -11.19104        -71.43415        104.4557             -200               0             -200               0
1.11184              -0.03164022       -11.29074        -71.86346        106.2601             -200               0             -200               0
1.11842              -0.03270341       -11.39127        -72.14858         109.148             -200               0             -200               0
1.125                 -0.0338558       -11.49257        -72.22612        112.8347             -200               0             -200               0
1.13158              -0.03509748       -11.59459        -72.05546        116.8189             -200               0             -200               0
1.13816              -0.03642935       -11.69729        -71.63802        120.5099             -200               0             -200               0
1.14474              -0.03784946       -11.80062        -71.01647        123.4186             -200               0             -200               0
1.15132              -0.03935452       -11.90455        -70.25467        125.2756             -200               0             -200               0
1.15789              -0.04094066       -12.00902        -69.41516        126.0258             -200               0             -200               0
1.16447              -0.04260225       -12.11401         -68.5468        125.7508             -200               0             -200               0
1.17105              -0.04433288        -12.2195        -67.68261        124.5918             -200               0             -200               0
1.17763              -0.04612636       -12.32547        -66.84267        122.6996             -200               0             -200               0
1.18421              -0.04797372       -12.43192        -66.03803        120.2112             -200               0             -200               0
1.19079              -0.04986753       -12.53884        -65.27402        117.2426             -200               0             -200               0
1.19737              -0.05179965       -12.64625        -64.55249         113.888             -200               0             -200               0
1.20395              -0.05376197       -12.75418        -63.87334        110.2233             -200               0             -200               0
1.21053              -0.05574655       -12.86265        -63.23537        106.3089             -200               0             -200               0
1.21711               -0.0577468       -12.97172        -62.63688        102.1931             -200               0             -200               0
1.22368              -0.05975757       -13.08144        -62.07595        97.91496             -200               0             -200               0
1.23026              -0.06177211       -13.19185        -61.55061        93.50592             -200               0             -200               0
1.23684              -0.06378792       -13.30304        -61.05898        88.99182             -200               0             -200               0
1.24342              -0.06580196       -13.41507        -60.59926        84.39403             -200               0             -200               0
1.25                 -0.06781386       -13.52802        -60.16982        79.73045             -200               0             -200               0
1.25658              -0.06982432       -13.64197        -59.76916        75.01626             -200               0             -200               0
1.26316              -0.07183564       -13.75698        -59.39591        70.26451             -200               0             -200               0
1.26974              -0.07385151       -13.87314        -59.04884        65.48662             -200               0             -200               0
1.27632              -0.07587799       -13.99052        -58.72684        60.69267             -200               0             -200               0
1.28289              -0.07792216       -14.10919        -58.42889        55.89177             -200               0             -200               0
1.28947              -0.07999088       -14.22921         -58.1541        51.09223             -200               0             -200               0
1.29605              -0.08209485       -14.35064        -57.90162        46.30182             -200               0             -200               0
1.30263              -0.08424361       -14.47351        -57.67072        41.52789             -200               0             -200               0
1.30921              -0.08644911       -14.59786        -57.46068        36.77749             -200               0             -200               0
1.31579              -0.08872145       -14.72372        -57.27087        32.05756             -200               0             -200               0
1.32237              -0.09107202       -14.85111        -57.10067        27.37494             -200               0             -200               0
1.32895              -0.09351325       -14.98003         -56.9495        22.73656             -200               0             -200               0
1.33553              -0.09605497       -15.11047        -56.81677        18.14941             -200               0             -200               0
1.34211              -0.09870875       -15.24241        -56.70192        13.62073             -200               0             -200               0
1.34868               -0.1014826       -15.37584        -56.60434        9.157978             -200               0             -200               0
1.35526               -0.1043863       -15.51073        -56.52339        4.768922             -200               0             -200               0
1.36184               -0.1074248       -15.64704        -56.45838       0.4616891             -200               0             -200               0
1.36842               -0.1106047       -15.78471        -56.40856       -3.755226             -200               0             -200               0
1.375                 -0.1139294       -15.92371        -56.37303       -7.872948             -200               0             -200               0
1.38158               -0.1174024         -16.064        -56.35079       -11.88224             -200               0             -200               0
1.38816               -0.1210222       -16.20552        -56.34068       -15.77357             -200               0             -200               0
1.39474               -0.1247892       -16.34824        -56.34132       -19.53721             -200               0             -200               0
1.40132               -0.1286992       -16.49212         -56.3511       -23.16338             -200               0             -200               0
1.40789               -0.1327499       -16.63712        -56.36815       -26.64252             -200               0             -200               0
1.41447               -0.1369344       -16.78323        -56.39026       -29.96562             -200               0             -200               0
1.42105               -0.1412473       -16.93044        -56.41491       -33.12462             -200               0             -200               0
1.42763               -0.1456798       -17.07873         -56.4392       -36.11301             -200               0             -200               0
1.43421               -0.1502242       -17.22813        -56.45989       -38.92647             -200               0             -200               0
1.44079               -0.1548729       -17.37866        -56.47339        -41.5636             -200               0             -200               0
1.44737               -0.1596174       -17.53034        -56.47586       -44.02677             -200               0             -200               0
1.45395               -0.1644491       -17.68324        -56.46329       -46.32285             -200               0             -200               0
1.46053               -0.1693623       -17.83741        -56.43167       -48.46383             -200               0             -200               0
1.46711               -0.1743485       -17.99292        -56.37717       -50.46718             -200               0             -200               0
1.47368               -0.1794052       -18.14987        -56.29638       -52.35582             -200               0             -200               0
1.48026               -0.1845269       -18.30835        -56.18654       -54.15753             -200               0             -200               0
1.48684               -0.1897134       -18.46846        -56.04572       -55.90392             -200               0             -200               0
1.49342               -0.1949641       -18.63031        -55.87302       -57.62888             -200               0             -200               0
1.5                   -0.2002817       -18.79401         -55.6686       -59.36679             -200               0             -200               0
1.50658               -0.2056708       -18.95969        -55.43368       -61.15058             -200               0             -200               0
1.51316               -0.2111373       -19.12746        -55.17041       -63.01009             -200               0             -200               0
1.51974               -0.2166917       -19.29742        -54.88169        -64.9707             -200               0             -200               0
1.52632               -0.2223436        -19.4697        -54.57096       -67.05256             -200               0             -200               0
1.53289               -0.2281076        -19.6444        -54.24193       -69.27026             -200               0             -200               0
1.53947               -0.2339959        -19.8216        -53.89843       -71.63303             -200               0             -200               0
1.54605               -0.2400267        -20.0014        -53.54414       -74.14521             -200               0             -200               0
1.55263               -0.2462173       -20.18386        -53.18256       -76.80698             -200               0             -200               0
1.55921               -0.2525856       -20.36905        -52.81686       -79.61514             -200               0             -200               0
1.56579               -0.2591514       -20.55701        -52.44984       -82.56391             -200               0             -200               0
1.57237               -0.2659334       -20.74778        -52.08393       -85.64564             -200               0             -200               0
1.57895               -0.2729508       -20.94137        -51.72119       -88.85142             -200               0             -200               0
1.58553               -0.2802229       -21.13778        -51.36334       -92.17158             -200               0             -200               0
1.59211               -0.2877669       -21.33702        -51.01177       -95.59609             -200               0             -200               0
1.59868               -0.2955993       -21.53905        -50.66762       -99.11482             -200               0             -200               0
1.60526               -0.3037359       -21.74386        -50.33175       -102.7178             -200               0             -200               0
1.61184               -0.3121893        -21.9514        -50.00482       -106.3953             -200               0             -200               0
1.61842               -0.3209705       -22.16163        -49.68732       -110.1381             -200               0             -200               0
1.625                 -0.3300884       -22.37451        -49.37956       -113.9371             -200               0             -200               0
1.63158               -0.3395527       -22.58999        -49.08175       -117.7839             -200               0             -200               0
1.63816               -0.3493645       -22.80803        -48.79395       -121.6705             -200               0             -200               0
1.64474                -0.359528       -23.02859        -48.51615       -125.5894             -200               0             -200               0
1.65132               -0.3700427       -23.25164        -48.24823       -129.5333             -200               0             -200               0
1.65789               -0.3809075       -23.47717        -47.99003       -133.4956             -200               0             -200               0
1.66447               -0.3921182       -23.70515        -47.74129       -137.4698             -200               0             -200               0
1.67105                 -0.40367       -23.93562        -47.50171       -141.4501             -200               0             -200               0
1.67763               -0.4155565       -24.16859        -47.27092       -145.4307             -200               0             -200               0
1.68421               -0.4277734       -24.40412        -47.04851       -149.4065             -200               0             -200               0
1.69079                -0.440311       -24.64226        -46.83401       -153.3725             -200               0             -200               0
1.69737               -0.4531615       -24.88312        -46.62692       -157.3241             -200               0             -200               0
1.70395               -0.4663228       -25.12679        -46.42666       -161.2571             -200               0             -200               0
1.71053               -0.4797874       -25.37343        -46.23263       -165.1675             -200               0             -200               0
1.71711               -0.4935537       -25.62317        -46.04419       -169.0519             -200               0             -200               0
1.72368                 -0.50762        -25.8762        -45.86063       -172.9071             -200               0             -200               0
1.73026               -0.5219887       -26.13271        -45.68122       -176.7304             -200               0             -200               0
1.73684                -0.536665       -26.39291        -45.50518        179.4804             -200               0             -200               0
1.74342                -0.551657       -26.65702         -45.3317        175.7271             -200               0             -200               0
1.75                  -0.5669768       -26.92527        -45.15994        172.0109             -200               0             -200               0
1.75658               -0.5826413       -27.19792        -44.98902        168.3323             -200               0             -200               0
1.76316               -0.5986705        -27.4752        -44.81806        164.6914             -200               0             -200               0
1.76974                -0.615089       -27.75737        -44.64618        161.0876             -200               0             -200               0
1.77632               -0.6319256       -28.04466        -44.47249        157.5195             -200               0             -200               0
1.78289               -0.6492135       -28.33734        -44.29612         153.985             -200               0             -200               0
1.78947               -0.6669897       -28.63561        -44.11624        150.4815             -200               0             -200               0
1.79605               -0.6852953       -28.93972        -43.93207        147.0054             -200               0             -200               0
1.80263                -0.704174       -29.24986        -43.74289        143.5528             -200               0             -200               0
1.80921               -0.7236723       -29.56622        -43.54805        140.1189             -200               0             -200               0
1.81579               -0.7438422       -29.88899        -43.34701        136.6984             -200               0             -200               0
1.82237               -0.7647346       -30.21832        -43.13932        133.2857             -200               0             -200               0
1.82895               -0.7864036       -30.55433        -42.92465        129.8748             -200               0             -200               0
1.83553               -0.8089046       -30.89716        -42.70281        126.4595             -200               0             -200               0
1.84211               -0.8322948       -31.24689        -42.47372        123.0333             -200               0             -200               0
1.84868               -0.8566292       -31.60361        -42.23741          119.59             -200               0             -200               0
1.85526               -0.8819655       -31.96738        -41.99407        116.1235             -200               0             -200               0
1.86184               -0.9083598       -32.33826        -41.74398         112.628             -200               0             -200               0
1.86842               -0.9358678       -32.71627        -41.48752        109.0979             -200               0             -200               0
1.875                 -0.9645456       -33.10146        -41.22517        105.5283             -200               0             -200               0
1.88158               -0.9944456       -33.49384        -40.95749        101.9148             -200               0             -200               0
1.88816                -1.025622       -33.89345        -40.68509        98.25342             -200               0             -200               0
1.89474                -1.058127       -34.30032        -40.40863        94.54098             -200               0             -200               0
1.90132                -1.092012       -34.71447        -40.12881        90.77481             -200               0             -200               0
1.90789                -1.127328       -35.13596        -39.84632        86.95289             -200               0             -200               0
1.91447                -1.164127       -35.56486        -39.56187        83.07374             -200               0             -200               0
1.92105                -1.202462       -36.00123        -39.27617        79.13644             -200               0             -200               0
1.92763                -1.242384       -36.44518         -38.9899        75.14056             -200               0             -200               0
1.93421                -1.283951       -36.89682        -38.70371        71.08614             -200               0             -200               0
1.94079                -1.327219       -37.35633        -38.41822        66.97359             -200               0             -200               0
1.94737                -1.372251       -37.82385        -38.13402        62.80367             -200               0             -200               0
1.95395                -1.419113        -38.2996        -37.85166        58.57743             -200               0             -200               0
1.96053                -1.467878       -38.78381        -37.57166        54.29616             -200               0             -200               0
1.96711                -1.518624       -39.27674        -37.29447        49.96137             -200               0             -200               0
1.97368                -1.571439       -39.77865        -37.02052        45.57468             -200               0             -200               0
1.98026                -1.626418       -40.28985        -36.75021        41.13788             -200               0             -200               0
1.98684                -1.683668       -40.81066        -36.48388         36.6528             -200               0             -200               0
1.99342                -1.743305       -41.34141        -36.22185        32.12137             -200               0             -200               0
2                      -1.805459       -41.88242        -35.96439        27.54551             -200               0             -200               0
2.00658                -1.870272       -42.43404        -35.71175         22.9272             -200               0             -200               0
2.01316                -1.937901        -42.9966        -35.46416        18.26837             -200               0             -200               0
2.01974                -2.008514        -43.5704         -35.2218        13.57097             -200               0             -200               0
2.02632                -2.082301       -44.15574        -34.98484        8.836903             -200               0             -200               0
2.03289                -2.159463       -44.75288        -34.75343        4.068037             -200               0             -200               0
2.03947                -2.240219       -45.36203         -34.5277      -0.7338024             -200               0             -200               0
2.04605                -2.324805       -45.98337        -34.30774       -5.566837             -200               0             -200               0
2.05263                -2.413474       -46.61701        -34.09365       -10.42934             -200               0             -200               0
2.05921                  -2.5065       -47.26298        -33.88551       -15.31965             -200               0             -200               0
2.06579                -2.604171       -47.92125        -33.68337       -20.23615             -200               0             -200               0
2.07237                -2.706794       -48.59167         -33.4873       -25.17728             -200               0             -200               0
2.07895                -2.814696       -49.27404        -33.29732       -30.14154             -200               0             -200               0
2.08553                -2.928223         -49.968        -33.11348       -35.12748             -200               0             -200               0
2.09211                -3.047738       -50.67311         -32.9358        -40.1337             -200               0             -200               0
2.09868                -3.173627       -51.38878        -32.76429       -45.15887             -200               0             -200               0
2.10526                -3.306292       -52.11428        -32.59897       -50.20169             -200               0             -200               0
2.11184                 -3.44616       -52.84873        -32.43984       -55.26093             -200               0             -200               0
2.11842                -3.593674        -53.5911         -32.2869       -60.33536             -200               0             -200               0
2.125                  -3.749304       -54.34016        -32.14016       -65.42386             -200               0             -200               0
2.13158                 -3.91354        -55.0945         -31.9996       -70.52529             -200               0             -200               0
2.13816                  -4.0869       -55.85249        -31.86522       -75.63858             -200               0             -200               0
2.14474                -4.269927       -56.61231          -31.737       -80.76269             -200               0             -200               0
2.15132                -4.463193       -57.37183        -31.61494       -85.89662             -200               0             -200               0
2.15789                -4.667302       -58.12871        -31.49902       -91.03938             -200               0             -200               0
2.16447                -4.882892       -58.88024        -31.38922       -96.19004             -200               0             -200               0
2.17105                -5.110638        -59.6234        -31.28552       -101.3477             -200               0             -200               0
2.17763                -5.351258       -60.35478        -31.18791       -106.5114             -200               0             -200               0
2.18421                -5.605515       -61.07051        -31.09638       -111.6803             -200               0             -200               0
2.19079                -5.874224       -61.76622        -31.01089       -116.8536             -200               0             -200               0
2.19737                -6.158261       -62.43693        -30.93143       -122.0304             -200               0             -200               0
2.20395                -6.458559       -63.07699        -30.85799       -127.2099             -200               0             -200               0
2.21053                -6.776126        -63.6799        -30.79053       -132.3913             -200               0             -200               0
2.21711                -7.112048       -64.23819        -30.72905       -137.5738             -200               0             -200               0
2.22368                -7.467497       -64.74321        -30.67351       -142.7566             -200               0             -200               0
2.23026                -7.843736        -65.1849        -30.62391       -147.9391             -200               0             -200               0
2.23684                -8.242129       -65.55147        -30.58021       -153.1203             -200               0             -200               0
2.24342                -8.664144       -65.82897         -30.5424       -158.2996             -200               0             -200               0
2.25                   -9.111347       -66.00081        -30.51047       -163.4761             -200               0             -200               0
2.25658                -9.585399       -66.04716        -30.48438       -168.6492             -200               0             -200               0
2.26316                -10.08802       -65.94401        -30.46411       -173.8181             -200               0             -200               0
2.26974                -10.62096       -65.66218        -30.44966       -178.9821             -200               0             -200               0
2.27632                -11.18586       -65.16589        -30.44099        175.8596             -200               0             -200               0
2.28289                -11.78414       -64.41112        -30.43808        170.7078             -200               0             -200               0
2.28947                -12.41671        -63.3434        -30.44092        165.5632             -200               0             -200               0