! TOUCHSTONE file generated by CST MICROWAVE STUDIO
! Date and time: Tue Mar 18 20:31:34 2025
! Project name: hairline.cst
! Parameters = {B=12.5; D=160; F=15; Feed=2.85625; Fracture=0.5; L=100; M=30; R=0.384908; S=1.5; Theta=0; length=57.125; wave=114.25}
! Header version: 2024
! Port assignment regex: !\s*Touchstone port\s*([0-9]+)\s*=\s*(CST MWS port|CST DES external port|CST DES block port)\s*(.+)\s* \(\"(.*)\"\)(\s*mode\s*([0-9]+))?.*
! Touchstone port assignment:
! Touchstone port 1 = CST MWS port 1 ("")
! Touchstone port 2 = CST MWS port 2 ("")
# GHz S DB R 50
1                    -0.02143402       -9.716188        -66.31351        174.8275             -200               0             -200               0
1.0066                -0.0220733        -9.80181        -66.34999        169.0859             -200               0             -200               0
1.0132               -0.02269743       -9.888043        -66.42291        163.4518             -200               0             -200               0
1.0198               -0.02330684       -9.974934         -66.5338        157.9355             -200               0             -200               0
1.0264               -0.02390569       -10.06253        -66.68448        152.5505             -200               0             -200               0
1.033                -0.02449704       -10.15087        -66.87715        147.3137             -200               0             -200               0
1.0396               -0.02508566       -10.23999        -67.11436        142.2474             -200               0             -200               0
1.0462               -0.02567688       -10.32994        -67.39908          137.38             -200               0             -200               0
1.05281              -0.02627469       -10.42073        -67.73467        132.7488             -200               0             -200               0
1.05941              -0.02688826       -10.51239        -68.12482        128.4021             -200               0             -200               0
1.06601              -0.02752239       -10.60495        -68.57342        124.4042             -200               0             -200               0
1.07261              -0.02818405        -10.6984        -69.08417        120.8405             -200               0             -200               0
1.07921              -0.02888095       -10.79277        -69.65983        117.8256             -200               0             -200               0
1.08581              -0.02961891       -10.88803         -70.3006        115.5135             -200               0             -200               0
1.09241              -0.03040438       -10.98419         -71.0011        114.1087             -200               0             -200               0
1.09901               -0.0312436       -11.08123        -71.74473         113.874             -200               0             -200               0
1.10561              -0.03214127       -11.17914        -72.49422        115.1176             -200               0             -200               0
1.11221              -0.03310235       -11.27788        -73.17892        118.1259             -200               0             -200               0
1.11881              -0.03412977       -11.37743        -73.68679        122.9894             -200               0             -200               0
1.12541              -0.03522611       -11.47777        -73.88293        129.3373             -200               0             -200               0
1.13201              -0.03639387       -11.57885        -73.67177        136.2142             -200               0             -200               0
1.13861              -0.03763261       -11.68065        -73.06299        142.4143             -200               0             -200               0
1.14521              -0.03894278       -11.78313        -72.16404        147.0707             -200               0             -200               0
1.15182              -0.04032131       -11.88627        -71.10899        149.9068             -200               0             -200               0
1.15842              -0.04176642       -11.99004          -70.003        151.0634             -200               0             -200               0
1.16502              -0.04327524       -12.09443        -68.91008        150.8395             -200               0             -200               0
1.17162              -0.04484207        -12.1994        -67.86299        149.5393             -200               0             -200               0
1.17822               -0.0464642       -12.30496        -66.87572        147.4165             -200               0             -200               0
1.18482              -0.04813356        -12.4111        -65.95216        144.6677             -200               0             -200               0
1.19142              -0.04984675       -12.51783        -65.09127        141.4404             -200               0             -200               0
1.19802              -0.05159573       -12.62514        -64.28979        137.8453             -200               0             -200               0
1.20462              -0.05337616       -12.73308        -63.54368        133.9651             -200               0             -200               0
1.21122              -0.05518289       -12.84165        -62.84875        129.8629             -200               0             -200               0
1.21782              -0.05700896        -12.9509        -62.20105        125.5869             -200               0             -200               0
1.22442              -0.05885078       -13.06087        -61.59692        121.1748             -200               0             -200               0
1.23102                -0.060704       -13.17161        -61.03312        116.6565             -200               0             -200               0
1.23762              -0.06256603       -13.28316        -60.50673        112.0557             -200               0             -200               0
1.24422               -0.0644343       -13.39559        -60.01519        107.3921             -200               0             -200               0
1.25083               -0.0663089       -13.50896        -59.55624        102.6818             -200               0             -200               0
1.25743              -0.06818999       -13.62334        -59.12788        97.93852             -200               0             -200               0
1.26403              -0.07007871       -13.73878        -58.72833        93.17391             -200               0             -200               0
1.27063              -0.07197871       -13.85535        -58.35602        88.39821             -200               0             -200               0
1.27723               -0.0738927        -13.9731        -58.00955        83.62051             -200               0             -200               0
1.28383                -0.075827       -14.09212        -57.68767        78.84903             -200               0             -200               0
1.29043              -0.07778767       -14.21243        -57.38923        74.09135             -200               0             -200               0
1.29703              -0.07978191       -14.33411        -57.11321        69.35459             -200               0             -200               0
1.30363               -0.0818172       -14.45718        -56.85865        64.64555             -200               0             -200               0
1.31023              -0.08390274       -14.58168        -56.62468        59.97081             -200               0             -200               0
1.31683              -0.08604705       -14.70765        -56.41046        55.33684             -200               0             -200               0
1.32343               -0.0882598        -14.8351         -56.2152         50.7501             -200               0             -200               0
1.33003              -0.09054982       -14.96405         -56.0381         46.2171             -200               0             -200               0
1.33663               -0.0929263        -15.0945        -55.87839        41.74442             -200               0             -200               0
1.34323              -0.09539743       -15.22646        -55.73527        37.33878             -200               0             -200               0
1.34984              -0.09797157        -15.3599        -55.60792        33.00712             -200               0             -200               0
1.35644               -0.1006563       -15.49482        -55.49545        28.75649             -200               0             -200               0
1.36304               -0.1034559       -15.63119        -55.39689        24.59417             -200               0             -200               0
1.36964               -0.1063778       -15.76899        -55.31121        20.52754             -200               0             -200               0
1.37624               -0.1094243        -15.9082        -55.23723        16.56413             -200               0             -200               0
1.38284               -0.1125989       -16.04878        -55.17363         12.7114             -200               0             -200               0
1.38944               -0.1159023       -16.19071        -55.11893        8.976701             -200               0             -200               0
1.39604               -0.1193354       -16.33397        -55.07146        5.367071             -200               0             -200               0
1.40264                -0.122895       -16.47852        -55.02933        1.888964             -200               0             -200               0
1.40924               -0.1265813       -16.62436        -54.99042        -1.45203             -200               0             -200               0
1.41584               -0.1303887       -16.77147         -54.9524       -4.651559             -200               0             -200               0
1.42244               -0.1343131       -16.91986        -54.91267       -7.706935             -200               0             -200               0
1.42904               -0.1383506       -17.06951        -54.86847        -10.6176             -200               0             -200               0
1.43564               -0.1424947       -17.22046        -54.81685       -13.38563             -200               0             -200               0
1.44224               -0.1467392       -17.37273        -54.75476       -16.01614             -200               0             -200               0
1.44884               -0.1510782       -17.52635        -54.67917       -18.51772             -200               0             -200               0
1.45545               -0.1555071       -17.68138        -54.58715       -20.90262             -200               0             -200               0
1.46205               -0.1600194       -17.83786        -54.47604       -23.18679             -200               0             -200               0
1.46865               -0.1646104       -17.99588        -54.34355       -25.38957             -200               0             -200               0
1.47525                -0.169278        -18.1555        -54.18792       -27.53322             -200               0             -200               0
1.48185               -0.1740188       -18.31682        -54.00805       -29.64203             -200               0             -200               0
1.48845               -0.1788326       -18.47993        -53.80351       -31.74136             -200               0             -200               0
1.49505                -0.183719       -18.64494        -53.57462       -33.85642             -200               0             -200               0
1.50165               -0.1886825       -18.81195        -53.32238       -36.01119             -200               0             -200               0
1.50825               -0.1937262       -18.98107        -53.04842        -38.2274             -200               0             -200               0
1.51485               -0.1988565       -19.15241        -52.75488       -40.52377             -200               0             -200               0
1.52145               -0.2040809       -19.32608        -52.44422       -42.91549             -200               0             -200               0
1.52805               -0.2094119       -19.50219        -52.11917       -45.41403             -200               0             -200               0
1.53465               -0.2148589       -19.68085        -51.78251       -48.02718             -200               0             -200               0
1.54125               -0.2204366       -19.86215        -51.43702       -50.75935             -200               0             -200               0
1.54785               -0.2261603       -20.04617        -51.08534        -53.6119             -200               0             -200               0
1.55446               -0.2320458       -20.23301        -50.72993       -56.58365             -200               0             -200               0
1.56106               -0.2381114       -20.42274        -50.37305       -59.67135             -200               0             -200               0
1.56766               -0.2443741        -20.6154        -50.01667       -62.87015             -200               0             -200               0
1.57426               -0.2508548       -20.81106        -49.66254       -66.17402             -200               0             -200               0
1.58086               -0.2575712       -21.00975        -49.31214       -69.57612             -200               0             -200               0
1.58746               -0.2645419        -21.2115        -48.96674       -73.06908             -200               0             -200               0
1.59406               -0.2717864       -21.41632        -48.62739       -76.64525             -200               0             -200               0
1.60066               -0.2793236       -21.62421        -48.29492        -80.2969             -200               0             -200               0
1.60726               -0.2871679       -21.83517        -47.97003       -84.01632             -200               0             -200               0
1.61386                -0.295338       -22.04919        -47.65324       -87.79596             -200               0             -200               0
1.62046               -0.3038467       -22.26625        -47.34494       -91.62846             -200               0             -200               0
1.62706               -0.3127072       -22.48632         -47.0454       -95.50672             -200               0             -200               0
1.63366               -0.3219318       -22.70937         -46.7548       -99.42392             -200               0             -200               0
1.64026               -0.3315288       -22.93539        -46.47322       -103.3735             -200               0             -200               0
1.64686               -0.3415065       -23.16434        -46.20066       -107.3493             -200               0             -200               0
1.65347               -0.3518716       -23.39621        -45.93705       -111.3452             -200               0             -200               0
1.66007                -0.362627       -23.63098        -45.68226       -115.3557             -200               0             -200               0
1.66667               -0.3737774       -23.86866        -45.43611       -119.3753             -200               0             -200               0
1.67327               -0.3853225       -24.10923        -45.19834       -123.3989             -200               0             -200               0
1.67987               -0.3972657       -24.35273        -44.96867       -127.4215             -200               0             -200               0
1.68647               -0.4096042       -24.59919        -44.74676       -131.4387             -200               0             -200               0
1.69307               -0.4223376       -24.84866        -44.53223       -135.4461             -200               0             -200               0
1.69967               -0.4354674        -25.1012        -44.32463       -139.4394             -200               0             -200               0
1.70627               -0.4489913        -25.3569         -44.1235        -143.415             -200               0             -200               0
1.71287               -0.4629116       -25.61586        -43.92831       -147.3692             -200               0             -200               0
1.71947               -0.4772268        -25.8782        -43.73851       -151.2988             -200               0             -200               0
1.72607               -0.4919438       -26.14405         -43.5535       -155.2008             -200               0             -200               0
1.73267               -0.5070644       -26.41359        -43.37262       -159.0727             -200               0             -200               0
1.73927               -0.5225995       -26.68695         -43.1952       -162.9123             -200               0             -200               0
1.74587               -0.5385562       -26.96435        -43.02052       -166.7177             -200               0             -200               0
1.75248               -0.5549492       -27.24596        -42.84783       -170.4876             -200               0             -200               0
1.75908               -0.5717951       -27.53199        -42.67634       -174.2212             -200               0             -200               0
1.76568               -0.5891124       -27.82265        -42.50526       -177.9181             -200               0             -200               0
1.77228               -0.6069253       -28.11817        -42.33377        178.4214             -200               0             -200               0
1.77888               -0.6252606       -28.41875        -42.16106        174.7965             -200               0             -200               0
1.78548               -0.6441501       -28.72461        -41.98631        171.2057             -200               0             -200               0
1.79208               -0.6636289       -29.03598        -41.80874        167.6469             -200               0             -200               0
1.79868               -0.6837334       -29.35305        -41.62757        164.1174             -200               0             -200               0
1.80528               -0.7045066       -29.67603         -41.4421        160.6139             -200               0             -200               0
1.81188               -0.7259946       -30.00512        -41.25167        157.1323             -200               0             -200               0
1.81848               -0.7482441       -30.34048         -41.0557        153.6682             -200               0             -200               0
1.82508               -0.7713067       -30.68229        -40.85369        150.2165             -200               0             -200               0
1.83168               -0.7952363        -31.0307        -40.64525        146.7719             -200               0             -200               0
1.83828               -0.8200886       -31.38584        -40.43007        143.3288             -200               0             -200               0
1.84488               -0.8459217       -31.74784        -40.20799        139.8811             -200               0             -200               0
1.85149               -0.8727959        -32.1168        -39.97894         136.423             -200               0             -200               0
1.85809               -0.9007717       -32.49282        -39.74297        132.9486             -200               0             -200               0
1.86469               -0.9299117       -32.87596        -39.50024        129.4521             -200               0             -200               0
1.87129               -0.9602777       -33.26631        -39.25102        125.9279             -200               0             -200               0
1.87789               -0.9919359       -33.66391        -38.99567        122.3709             -200               0             -200               0
1.88449                -1.024949        -34.0688        -38.73464        118.7763             -200               0             -200               0
1.89109                -1.059383       -34.48103        -38.46845        115.1399             -200               0             -200               0
1.89769                -1.095304       -34.90062        -38.19767        111.4581             -200               0             -200               0
1.90429                -1.132778       -35.32762        -37.92292        107.7275             -200               0             -200               0
1.91089                -1.171873       -35.76204        -37.64485        103.9457             -200               0             -200               0
1.91749                -1.212658       -36.20392        -37.36413        100.1105             -200               0             -200               0
1.92409                -1.255203        -36.6533        -37.08142         96.2206             -200               0             -200               0
1.93069                 -1.29958       -37.11021         -36.7974        92.27485             -200               0             -200               0
1.93729                -1.345865        -37.5747         -36.5127        88.27277             -200               0             -200               0
1.94389                -1.394135       -38.04684        -36.22796        84.21428             -200               0             -200               0
1.9505                 -1.444471       -38.52668        -35.94377        80.09963             -200               0             -200               0
1.9571                 -1.496959        -39.0143        -35.66071        75.92946             -200               0             -200               0
1.9637                 -1.551691       -39.50977        -35.37931        71.70464             -200               0             -200               0
1.9703                 -1.608762       -40.01321        -35.10005        67.42632             -200               0             -200               0
1.9769                 -1.668275       -40.52468        -34.82341        63.09582             -200               0             -200               0
1.9835                 -1.730343        -41.0443         -34.5498        58.71463             -200               0             -200               0
1.9901                 -1.795083       -41.57216         -34.2796        54.28438             -200               0             -200               0
1.9967                 -1.862621       -42.10836        -34.01317        49.80674             -200               0             -200               0
2.0033                 -1.933098       -42.65299        -33.75082        45.28352             -200               0             -200               0
2.0099                  -2.00666       -43.20612        -33.49282        40.71651             -200               0             -200               0
2.0165                 -2.083469       -43.76781        -33.23944        36.10755             -200               0             -200               0
2.0231                 -2.163694        -44.3381         -32.9909        31.45848             -200               0             -200               0
2.0297                 -2.247518       -44.91698        -32.74739        26.77112             -200               0             -200               0
2.0363                 -2.335142        -45.5044        -32.50909         22.0473             -200               0             -200               0
2.0429                 -2.426776        -46.1003        -32.27615         17.2888             -200               0             -200               0
2.0495                 -2.522643       -46.70452        -32.04871        12.49735             -200               0             -200               0
2.05611                -2.622987       -47.31686        -31.82687        7.674663             -200               0             -200               0
2.06271                 -2.72806       -47.93705        -31.61075        2.822399             -200               0             -200               0
2.06931                -2.838135       -48.56472        -31.40042       -2.057834             -200               0             -200               0
2.07591                -2.953499       -49.19942        -31.19595       -6.964477             -200               0             -200               0
2.08251                -3.074455       -49.84059        -30.99741       -11.89602             -200               0             -200               0
2.08911                -3.201324       -50.48756        -30.80484         -16.851             -200               0             -200               0
2.09571                -3.334443       -51.13954        -30.61829       -21.82801             -200               0             -200               0
2.10231                -3.474166       -51.79558        -30.43779        -26.8257             -200               0             -200               0
2.10891                -3.620869       -52.45459        -30.26336       -31.84274             -200               0             -200               0
2.11551                -3.774942       -53.11533        -30.09503       -36.87789             -200               0             -200               0
2.12211                -3.936798       -53.77633         -29.9328       -41.92991             -200               0             -200               0
2.12871                -4.106868       -54.43596        -29.77669       -46.99763             -200               0             -200               0
2.13531                -4.285605       -55.09237        -29.62671       -52.07992             -200               0             -200               0
2.14191                -4.473487       -55.74341        -29.48285       -57.17567             -200               0             -200               0
2.14851                -4.671008       -56.38673        -29.34511       -62.28382             -200               0             -200               0
2.15512                -4.878696       -57.01962         -29.2135       -67.40336             -200               0             -200               0
2.16172                -5.097097       -57.63904        -29.08801       -72.53327             -200               0             -200               0
2.16832                 -5.32679       -58.24158        -28.96862        -77.6726             -200               0             -200               0
2.17492                -5.568383       -58.82341        -28.85534       -82.82041             -200               0             -200               0
2.18152                -5.822512       -59.38014        -28.74814       -87.97578             -200               0             -200               0
2.18812                -6.089847       -59.90688        -28.64703       -93.13783             -200               0             -200               0
2.19472                -6.371094       -60.39806        -28.55198       -98.30568             -200               0             -200               0
2.20132                -6.666991       -60.84734          -28.463       -103.4785             -200               0             -200               0
2.20792                -6.978312       -61.24749        -28.38006       -108.6554             -200               0             -200               0
2.21452                -7.305864       -61.59024        -28.30315       -113.8357             -200               0             -200               0
2.22112                -7.650482       -61.86612        -28.23226       -119.0184             -200               0             -200               0
2.22772                -8.013025       -62.06416        -28.16738       -124.2028             -200               0             -200               0
2.23432                -8.394364       -62.17169         -28.1085       -129.3882             -200               0             -200               0
2.24092                -8.795357       -62.17395         -28.0556       -134.5737             -200               0             -200               0
2.24752                -9.216829       -62.05373        -28.00867       -139.7587             -200               0             -200               0
2.25413                -9.659517       -61.79082        -27.96769       -144.9422             -200               0             -200               0
2.26073                  -10.124       -61.36154        -27.93267       -150.1236             -200               0             -200               0
2.26733                -10.61061       -60.73799        -27.90357        -155.302             -200               0             -200               0
2.27393                -11.11926       -59.88733         -27.8804       -160.4768             -200               0             -200               0
2.28053                -11.64923       -58.77113        -27.86313       -165.6472             -200               0             -200               0
2.28713                -12.19887       -57.34466        -27.85176       -170.8124             -200               0             -200               0
2.29373                -12.76514       -55.55666        -27.84628       -175.9715             -200               0             -200               0