! TOUCHSTONE file generated by CST MICROWAVE STUDIO
! Date and time: Tue Mar 18 20:31:50 2025
! Project name: hairline.cst
! Parameters = {B=12.5; D=160; F=25; Feed=2.85625; Fracture=2; L=100; M=30; R=0.384908; S=1.5; Theta=180; length=57.125; wave=114.25}
! Header version: 2024
! Port assignment regex: !\s*Touchstone port\s*([0-9]+)\s*=\s*(CST MWS port|CST DES external port|CST DES block port)\s*(.+)\s* \(\"(.*)\"\)(\s*mode\s*([0-9]+))?.*
! Touchstone port assignment:
! Touchstone port 1 = CST MWS port 1 ("")
! Touchstone port 2 = CST MWS port 2 ("")
# GHz S DB R 50
1                    -0.02147902       -9.984124         -66.0185        161.4414             -200               0             -200               0
1.0066               -0.02202322       -10.07116        -66.06867        155.5962             -200               0             -200               0
1.0132               -0.02253359       -10.15893         -66.1537        149.8672             -200               0             -200               0
1.0198               -0.02301312       -10.24749        -66.27495        144.2654             -200               0             -200               0
1.0264                -0.0234689       -10.33692        -66.43404         138.805             -200               0             -200               0
1.033                -0.02390715       -10.42727        -66.63283        133.5039             -200               0             -200               0
1.0396               -0.02433795       -10.51859        -66.87343        128.3851             -200               0             -200               0
1.0462               -0.02476894       -10.61092        -67.15823         123.478             -200               0             -200               0
1.05281              -0.02521219       -10.70429        -67.48977        118.8202             -200               0             -200               0
1.05941              -0.02567852       -10.79873        -67.87065        114.4604             -200               0             -200               0
1.06601              -0.02617754       -10.89424        -68.30331        110.4616             -200               0             -200               0
1.07261              -0.02672164       -10.99083        -68.78944        106.9056             -200               0             -200               0
1.07921              -0.02732053       -11.08847        -69.32917        103.8989             -200               0             -200               0
1.08581              -0.02798423       -11.18716        -69.91935        101.5789             -200               0             -200               0
1.09241              -0.02872299       -11.28685        -70.55075        100.1188             -200               0             -200               0
1.09901              -0.02954377       -11.38751        -71.20342        99.72485             -200               0             -200               0
1.10561              -0.03045323       -11.48909        -71.84008        100.6142             -200               0             -200               0
1.11221               -0.0314567       -11.59153        -72.39933        102.9505             -200               0             -200               0
1.11881              -0.03255906       -11.69478        -72.79496        106.7196             -200               0             -200               0
1.12541              -0.03376079       -11.79878         -72.9332        111.5815             -200               0             -200               0
1.13201              -0.03506221       -11.90346        -72.75157         116.835             -200               0             -200               0
1.13861               -0.0364627       -12.00878        -72.25497        121.6303             -200               0             -200               0
1.14521              -0.03795884       -12.11468         -71.5125        125.3086             -200               0             -200               0
1.15182              -0.03954577        -12.2211        -70.61863          127.58             -200               0             -200               0
1.15842              -0.04121702       -12.32801        -69.65654        128.4639             -200               0             -200               0
1.16502              -0.04296507       -12.43536        -68.68396        128.1375             -200               0             -200               0
1.17162              -0.04478302       -12.54315         -67.7352        126.8197             -200               0             -200               0
1.17822               -0.0466599       -12.65135        -66.82824        124.7138             -200               0             -200               0
1.18482              -0.04858649       -12.75996        -65.97108        121.9892             -200               0             -200               0
1.19142              -0.05055268       -12.86899        -65.16609        118.7796             -200               0             -200               0
1.19802              -0.05254932       -12.97847        -64.41265        115.1894             -200               0             -200               0
1.20462              -0.05456694       -13.08843        -63.70868        111.2991             -200               0             -200               0
1.21122              -0.05659706       -13.19892        -63.05148        107.1711             -200               0             -200               0
1.21782              -0.05863089       -13.30998        -62.43818        102.8543             -200               0             -200               0
1.22442              -0.06066288        -13.4217        -61.86596        98.38726             -200               0             -200               0
1.23102              -0.06268668       -13.53415        -61.33221        93.80089             -200               0             -200               0
1.23762              -0.06470116        -13.6474        -60.83451        89.12012             -200               0             -200               0
1.24422              -0.06670259       -13.76154        -60.37068        84.36544             -200               0             -200               0
1.25083               -0.0686918       -13.87665        -59.93877        79.55389             -200               0             -200               0
1.25743              -0.07067137       -13.99284        -59.53705        74.69986             -200               0             -200               0
1.26403              -0.07264475       -14.11018        -59.16397        69.81571             -200               0             -200               0
1.27063              -0.07461777       -14.22876        -58.81815        64.91222             -200               0             -200               0
1.27723              -0.07659774       -14.34866        -58.49837        59.99895             -200               0             -200               0
1.28383              -0.07859505       -14.46996        -58.20352        55.08453             -200               0             -200               0
1.29043              -0.08061871        -14.5927        -57.93265        50.17693             -200               0             -200               0
1.29703              -0.08268081       -14.71695        -57.68486         45.2836             -200               0             -200               0
1.30363              -0.08479359       -14.84275        -57.45937        40.41165             -200               0             -200               0
1.31023              -0.08697114       -14.97013        -57.25545        35.56798             -200               0             -200               0
1.31683              -0.08922575        -15.0991        -57.07245        30.75943             -200               0             -200               0
1.32343               -0.0915704       -15.22968        -56.90974        25.99284             -200               0             -200               0
1.33003              -0.09401812       -15.36185        -56.76672        21.27515             -200               0             -200               0
1.33663              -0.09658112       -15.49559        -56.64282         16.6135             -200               0             -200               0
1.34323              -0.09927008       -15.63088        -56.53747        12.01531             -200               0             -200               0
1.34984               -0.1020944       -15.76767        -56.45006        7.488321             -200               0             -200               0
1.35644               -0.1050624       -15.90593        -56.37995         3.04068             -200               0             -200               0
1.36304               -0.1081815        -16.0456        -56.32647       -1.319026             -200               0             -200               0
1.36964               -0.1114553       -16.18662        -56.28881       -5.581737             -200               0             -200               0
1.37624               -0.1148866       -16.32893         -56.2661       -9.737902             -200               0             -200               0
1.38284               -0.1184761       -16.47249        -56.25728        -13.7775             -200               0             -200               0
1.38944               -0.1222223       -16.61723        -56.26113       -17.69012             -200               0             -200               0
1.39604               -0.1261218       -16.76311        -56.27619       -21.46502             -200               0             -200               0
1.40264                -0.130171       -16.91008        -56.30073       -25.09138             -200               0             -200               0
1.40924               -0.1343621       -17.05812        -56.33272       -28.55853             -200               0             -200               0
1.41584               -0.1386884        -17.2072        -56.36975       -31.85637             -200               0             -200               0
1.42244               -0.1431395       -17.35731          -56.409       -34.97587             -200               0             -200               0
1.42904               -0.1477066       -17.50845        -56.44726       -37.90975             -200               0             -200               0
1.43564                 -0.15238       -17.66066        -56.48088       -40.65329             -200               0             -200               0
1.44224               -0.1571493       -17.81396        -56.50581       -43.20523             -200               0             -200               0
1.44884                -0.162004        -17.9684        -56.51771       -45.56878             -200               0             -200               0
1.45545               -0.1669363       -18.12404        -56.51206       -47.75254             -200               0             -200               0
1.46205               -0.1719374       -18.28097        -56.48437       -49.77119             -200               0             -200               0
1.46865                -0.177001       -18.43927        -56.43041        -51.6459             -200               0             -200               0
1.47525               -0.1821216       -18.59905         -56.3465       -53.40411             -200               0             -200               0
1.48185               -0.1872973       -18.76043         -56.2298       -55.07873             -200               0             -200               0
1.48845               -0.1925266       -18.92352        -56.07851        -56.7066             -200               0             -200               0
1.49505               -0.1978115       -19.08844        -55.89208       -58.32657             -200               0             -200               0
1.50165               -0.2031557       -19.25533         -55.6712        -59.9771             -200               0             -200               0
1.50825               -0.2085666       -19.42432        -55.41777       -61.69411             -200               0             -200               0
1.51485               -0.2140512       -19.59553        -55.13468       -63.50903             -200               0             -200               0
1.52145               -0.2196236       -19.76908        -54.82557       -65.44751             -200               0             -200               0
1.52805               -0.2252962        -19.9451        -54.49454       -67.52877             -200               0             -200               0
1.53465               -0.2310857       -20.12367        -54.14591       -69.76558             -200               0             -200               0
1.54125               -0.2370087       -20.30491        -53.78391       -72.16474             -200               0             -200               0
1.54785               -0.2430854       -20.48888         -53.4126       -74.72788             -200               0             -200               0
1.55446               -0.2493341       -20.67566        -53.03564       -77.45241             -200               0             -200               0
1.56106                -0.255777        -20.8653         -52.6563       -80.33249             -200               0             -200               0
1.56766               -0.2624365       -21.05782        -52.27743       -83.35993             -200               0             -200               0
1.57426               -0.2693315       -21.25324        -51.90141       -86.52496             -200               0             -200               0
1.58086                -0.276484       -21.45158        -51.53023       -89.81689             -200               0             -200               0
1.58746                -0.283912       -21.65282        -51.16551       -93.22454             -200               0             -200               0
1.59406               -0.2916365       -21.85693        -50.80853       -96.73666             -200               0             -200               0
1.60066               -0.2996708       -22.06388        -50.46029       -100.3422             -200               0             -200               0
1.60726               -0.3080316       -22.27362        -50.12154       -104.0303             -200               0             -200               0
1.61386               -0.3167312        -22.4861        -49.79284       -107.7908             -200               0             -200               0
1.62046               -0.3257791       -22.70126        -49.47455       -111.6137             -200               0             -200               0
1.62706               -0.3351823       -22.91904        -49.16689       -115.4899             -200               0             -200               0
1.63366                -0.344947        -23.1394        -48.86996       -119.4105             -200               0             -200               0
1.64026               -0.3550733       -23.36227        -48.58375       -123.3674             -200               0             -200               0
1.64686               -0.3655632       -23.58762        -48.30816       -127.3528             -200               0             -200               0
1.65347               -0.3764129       -23.81542        -48.04301       -131.3594             -200               0             -200               0
1.66007               -0.3876185       -24.04564        -47.78804       -135.3804             -200               0             -200               0
1.66667               -0.3991736        -24.2783        -47.54296       -139.4093             -200               0             -200               0
1.67327               -0.4110708       -24.51342        -47.30737       -143.4402             -200               0             -200               0
1.67987               -0.4233011       -24.75102        -47.08088       -147.4672             -200               0             -200               0
1.68647                -0.435856       -24.99118        -46.86299       -151.4852             -200               0             -200               0
1.69307                -0.448727       -25.23399        -46.65319       -155.4891             -200               0             -200               0
1.69967               -0.4619072       -25.47955         -46.4509       -159.4744             -200               0             -200               0
1.70627               -0.4753882       -25.72801        -46.25551       -163.4367             -200               0             -200               0
1.71287               -0.4891661       -25.97951        -46.06636       -167.3722             -200               0             -200               0
1.71947               -0.5032379       -26.23425        -45.88271       -171.2774             -200               0             -200               0
1.72607               -0.5176051       -26.49243        -45.70383       -175.1492             -200               0             -200               0
1.73267               -0.5322704       -26.75425         -45.5289       -178.9851             -200               0             -200               0
1.73927               -0.5472412       -27.01997        -45.35708        177.2172             -200               0             -200               0
1.74587               -0.5625286       -27.28981         -45.1875        173.4591             -200               0             -200               0
1.75248               -0.5781499       -27.56405        -45.01923        169.7417             -200               0             -200               0
1.75908                -0.594124       -27.84293        -44.85136        166.0653             -200               0             -200               0
1.76568               -0.6104744       -28.12673        -44.68292        162.4295             -200               0             -200               0
1.77228               -0.6272337       -28.41569        -44.51297        158.8333             -200               0             -200               0
1.77888               -0.6444315       -28.71008        -44.34058        155.2749             -200               0             -200               0
1.78548               -0.6621078       -29.01014        -44.16483        151.7516             -200               0             -200               0
1.79208               -0.6803059        -29.3161        -43.98485        148.2603             -200               0             -200               0
1.79868                -0.699069       -29.62818        -43.79984        144.7968             -200               0             -200               0
1.80528               -0.7184471       -29.94659        -43.60907        141.3563             -200               0             -200               0
1.81188               -0.7384927       -30.27149         -43.4119        137.9335             -200               0             -200               0
1.81848               -0.7592583       -30.60305        -43.20781        134.5225             -200               0             -200               0
1.82508               -0.7808002       -30.94141        -42.99639        131.1169             -200               0             -200               0
1.83168               -0.8031771       -31.28669        -42.77737        127.7102             -200               0             -200               0
1.83828               -0.8264454       -31.63898        -42.55061        124.2954             -200               0             -200               0
1.84488               -0.8506637       -31.99835        -42.31612        120.8659             -200               0             -200               0
1.85149               -0.8758909       -32.36488        -42.07402         117.415             -200               0             -200               0
1.85809               -0.9021845        -32.7386         -41.8246        113.9362             -200               0             -200               0
1.86469               -0.9296016       -33.11954        -41.56822        110.4236             -200               0             -200               0
1.87129               -0.9581985       -33.50773        -41.30537        106.8717             -200               0             -200               0
1.87789               -0.9880298       -33.90318        -41.03662        103.2755             -200               0             -200               0
1.88449                -1.019148       -34.30592        -40.76262        99.63063             -200               0             -200               0
1.89109                -1.051607       -34.71597        -40.48407        95.93352             -200               0             -200               0
1.89769                -1.085457       -35.13334         -40.2017        92.18115             -200               0             -200               0
1.90429                -1.120751       -35.55808        -39.91625         88.3712             -200               0             -200               0
1.91089                -1.157538       -35.99026         -39.6285        84.50198             -200               0             -200               0
1.91749                -1.195868       -36.42993        -39.33918        80.57241             -200               0             -200               0
1.92409                -1.235797       -36.87719        -39.04903        76.58195             -200               0             -200               0
1.93069                -1.277376       -37.33218        -38.75876        72.53056             -200               0             -200               0
1.93729                -1.320664       -37.79503        -38.46903        68.41864             -200               0             -200               0
1.94389                 -1.36572       -38.26593        -38.18048        64.24697             -200               0             -200               0
1.9505                 -1.412609       -38.74507        -37.89369        60.01663             -200               0             -200               0
1.9571                 -1.461403       -39.23271         -37.6092          55.729             -200               0             -200               0
1.9637                  -1.51218        -39.7291        -37.32752        51.38564             -200               0             -200               0
1.9703                 -1.565024       -40.23454        -37.04911        46.98832             -200               0             -200               0
1.9769                 -1.620034       -40.74934        -36.77437         42.5389             -200               0             -200               0
1.9835                 -1.677312       -41.27383        -36.50368        38.03934             -200               0             -200               0
1.9901                 -1.736977       -41.80836        -36.23736        33.49169             -200               0             -200               0
1.9967                 -1.799158       -42.35328        -35.97572          28.898             -200               0             -200               0
2.0033                 -1.863997       -42.90895        -35.71901        24.26034             -200               0             -200               0
2.0099                 -1.931654       -43.47573        -35.46746        19.58079             -200               0             -200               0
2.0165                   -2.0023       -44.05394        -35.22127         14.8614             -200               0             -200               0
2.0231                 -2.076123        -44.6439        -34.98062        10.10417             -200               0             -200               0
2.0297                  -2.15333        -45.2459        -34.74566        5.311075             -200               0             -200               0
2.0363                 -2.234142       -45.86018        -34.51651       0.4840432             -200               0             -200               0
2.0429                   -2.3188       -46.48693        -34.29329       -4.375059             -200               0             -200               0
2.0495                 -2.407561       -47.12628        -34.07607       -9.264421             -200               0             -200               0
2.05611                -2.500703       -47.77827        -33.86496        -14.1823             -200               0             -200               0
2.06271                 -2.59852       -48.44291        -33.65999         -19.127             -200               0             -200               0
2.06931                -2.701327       -49.12007        -33.46123       -24.09689             -200               0             -200               0
2.07591                -2.809456       -49.80953        -33.26872       -29.09041             -200               0             -200               0
2.08251                -2.923259       -50.51098        -33.08248       -34.10606             -200               0             -200               0
2.08911                 -3.04311       -51.22396        -32.90253       -39.14238             -200               0             -200               0
2.09571                  -3.1694       -51.94789         -32.7289       -44.19797             -200               0             -200               0
2.10231                -3.302542       -52.68206        -32.56159       -49.27151             -200               0             -200               0
2.10891                -3.442967       -53.42559        -32.40061       -54.36171             -200               0             -200               0
2.11551                -3.591133       -54.17743        -32.24595       -59.46731             -200               0             -200               0
2.12211                -3.747519       -54.93637         -32.0976       -64.58714             -200               0             -200               0
2.12871                -3.912626       -55.70098        -31.95557       -69.72003             -200               0             -200               0
2.13531                -4.086982       -56.46963        -31.81984       -74.86489             -200               0             -200               0
2.14191                -4.271146       -57.24047        -31.69039       -80.02065             -200               0             -200               0
2.14851                -4.465701       -58.01138        -31.56721       -85.18626             -200               0             -200               0
2.15512                -4.671266       -58.77996        -31.45028       -90.36073             -200               0             -200               0
2.16172                -4.888496       -59.54353        -31.33959        -95.5431             -200               0             -200               0
2.16832                -5.118085       -60.29901        -31.23511       -100.7324             -200               0             -200               0
2.17492                -5.360769       -61.04296        -31.13683       -105.9278             -200               0             -200               0
2.18152                -5.617334       -61.77147        -31.04471       -111.1282             -200               0             -200               0
2.18812                -5.888624       -62.48012        -30.95875        -116.333             -200               0             -200               0
2.19472                -6.175537       -63.16388        -30.87892       -121.5412             -200               0             -200               0
2.20132                -6.479042         -63.817         -30.8052       -126.7519             -200               0             -200               0
2.20792                -6.800185       -64.43288        -30.73756       -131.9645             -200               0             -200               0
2.21452                -7.140093       -65.00395        -30.67598        -137.178             -200               0             -200               0
2.22112                -7.499988       -65.52139        -30.62044       -142.3917             -200               0             -200               0
2.22772                -7.881193       -65.97493        -30.57093       -147.6048             -200               0             -200               0
2.23432                -8.285138       -66.35251        -30.52741       -152.8165             -200               0             -200               0
2.24092                -8.713369       -66.63982        -30.48986       -158.0261             -200               0             -200               0
2.24752                -9.167544        -66.8198        -30.45827       -163.2327             -200               0             -200               0
2.25413                -9.649428       -66.87197         -30.4326       -168.4357             -200               0             -200               0
2.26073                -10.16087       -66.77145        -30.41284       -173.6342             -200               0             -200               0
2.26733                -10.70374       -66.48788        -30.39897       -178.8276             -200               0             -200               0
2.27393                -11.27986       -65.98389        -30.39096         175.985             -200               0             -200               0
2.28053                -11.89079       -65.21319        -30.38879        170.8043             -200               0             -200               0
2.28713                -12.53758       -64.11822        -30.39243        165.6311             -200               0             -200               0
2.29373                -13.22022       -62.62738        -30.40187        160.4661             -200               0             -200               0