! TOUCHSTONE file generated by CST MICROWAVE STUDIO
! Date and time: Tue Mar 18 20:31:59 2025
! Project name: hairline.cst
! Parameters = {B=12.5; D=160; F=25; Feed=2.85625; Fracture=2; L=100; M=50; R=0.384908; S=1.5; Theta=270; length=57.125; wave=114.25}
! Header version: 2024
! Port assignment regex: !\s*Touchstone port\s*([0-9]+)\s*=\s*(CST MWS port|CST DES external port|CST DES block port)\s*(.+)\s* \(\"(.*)\"\)(\s*mode\s*([0-9]+))?.*
! Touchstone port assignment:
! Touchstone port 1 = CST MWS port 1 ("")
! Touchstone port 2 = CST MWS port 2 ("")
# GHz S DB R 50
1                    -0.01942045       -10.01855        -70.62517        116.9671             -200               0             -200               0
1.00758              -0.02040899       -10.12071        -70.82928        111.8436             -200               0             -200               0
1.01515              -0.02140766       -10.22339        -71.06402        106.8884             -200               0             -200               0
1.02273              -0.02241048       -10.32661        -71.33075        102.1261             -200               0             -200               0
1.0303               -0.02341274       -10.43042        -71.63081        97.58669             -200               0             -200               0
1.03788              -0.02441009       -10.53487        -71.96532        93.30771             -200               0             -200               0
1.04545              -0.02539796       -10.63999        -72.33499         89.3354             -200               0             -200               0
1.05303              -0.02637578       -10.74586        -72.73975        85.72708             -200               0             -200               0
1.06061              -0.02734064       -10.85252        -73.17816        82.55319             -200               0             -200               0
1.06818              -0.02829062       -10.96004        -73.64646        79.89917             -200               0             -200               0
1.07576              -0.02922901       -11.06849        -74.13724        77.86575             -200               0             -200               0
1.08333              -0.03015564       -11.17792        -74.63742        76.56559             -200               0             -200               0
1.09091              -0.03107312        -11.2884        -75.12583        76.11216             -200               0             -200               0
1.09848              -0.03198606           -11.4        -75.57084         76.5953             -200               0             -200               0
1.10606              -0.03290071       -11.51276         -75.9297        78.03922             -200               0             -200               0
1.11364              -0.03382011       -11.62676        -76.15241        80.34826             -200               0             -200               0
1.12121              -0.03475435       -11.74203        -76.19241        83.26638             -200               0             -200               0
1.12879              -0.03570838       -11.85862        -76.02194        86.39315             -200               0             -200               0
1.13636              -0.03669032       -11.97658        -75.64354        89.27544             -200               0             -200               0
1.14394               -0.0377118       -12.09593        -75.08894        91.53181             -200               0             -200               0
1.15152               -0.0387787        -12.2167        -74.40615        92.93315             -200               0             -200               0
1.15909              -0.03990251       -12.33891        -73.64446        93.40695             -200               0             -200               0
1.16667              -0.04108957       -12.46258        -72.84482        92.99188             -200               0             -200               0
1.17424              -0.04235124        -12.5877        -72.03699        91.78437             -200               0             -200               0
1.18182              -0.04369593       -12.71427        -71.24054        89.89952             -200               0             -200               0
1.18939              -0.04512954        -12.8423         -70.4674        87.44917             -200               0             -200               0
1.19697              -0.04666102       -12.97176        -69.72416        84.53239             -200               0             -200               0
1.20455              -0.04829723       -13.10263        -69.01404        81.23291             -200               0             -200               0
1.21212              -0.05004153        -13.2349        -68.33809        77.61987             -200               0             -200               0
1.2197               -0.05190042       -13.36855        -67.69612        73.74966             -200               0             -200               0
1.22727              -0.05387696       -13.50354        -67.08721        69.66818             -200               0             -200               0
1.23485              -0.05597315       -13.63986        -66.51007        65.41283             -200               0             -200               0
1.24242              -0.05819097       -13.77749        -65.96324        61.01419             -200               0             -200               0
1.25                 -0.06053029       -13.91638         -65.4452        56.49745             -200               0             -200               0
1.25758               -0.0629912       -14.05655        -64.95449        51.88348             -200               0             -200               0
1.26515              -0.06557162       -14.19796        -64.48968        47.18976             -200               0             -200               0
1.27273              -0.06826938       -14.34061        -64.04945        42.43103             -200               0             -200               0
1.2803                -0.0710825        -14.4845        -63.63257        37.61986             -200               0             -200               0
1.28788              -0.07400649       -14.62964        -63.23792        32.76706             -200               0             -200               0
1.29545              -0.07703779       -14.77603        -62.86444        27.88208             -200               0             -200               0
1.30303              -0.08017235       -14.92371         -62.5112         22.9732             -200               0             -200               0
1.31061               -0.0834073       -15.07269        -62.17731        18.04782             -200               0             -200               0
1.31818               -0.0867396       -15.22302        -61.86198        13.11262             -200               0             -200               0
1.32576              -0.09016393       -15.37475        -61.56447        8.173727             -200               0             -200               0
1.33333              -0.09367905       -15.52792         -61.2841         3.23678             -200               0             -200               0
1.34091              -0.09728212       -15.68261        -61.02026       -1.692905             -200               0             -200               0
1.34848               -0.1009743       -15.83887        -60.77235       -6.610272             -200               0             -200               0
1.35606               -0.1047543       -15.99678        -60.53982       -11.51046             -200               0             -200               0
1.36364                -0.108623       -16.15643        -60.32215       -16.38871             -200               0             -200               0
1.37121               -0.1125863       -16.31788        -60.11885       -21.24036             -200               0             -200               0
1.37879               -0.1166456       -16.48124        -59.92943       -26.06074             -200               0             -200               0
1.38636               -0.1208092       -16.64657        -59.75341       -30.84518             -200               0             -200               0
1.39394               -0.1250815       -16.81397         -59.5903       -35.58893             -200               0             -200               0
1.40152               -0.1294732       -16.98352        -59.43961       -40.28717             -200               0             -200               0
1.40909               -0.1339935        -17.1553        -59.30084       -44.93495             -200               0             -200               0
1.41667                -0.138654       -17.32938        -59.17344        -49.5272             -200               0             -200               0
1.42424               -0.1434682       -17.50584        -59.05683       -54.05873             -200               0             -200               0
1.43182               -0.1484477       -17.68474        -58.95037       -58.52418             -200               0             -200               0
1.43939               -0.1536093       -17.86613        -58.85337       -62.91808             -200               0             -200               0
1.44697               -0.1589666       -18.05007        -58.76505       -67.23486             -200               0             -200               0
1.45455               -0.1645356       -18.23659        -58.68453       -71.46889             -200               0             -200               0
1.46212               -0.1703335       -18.42572        -58.61083       -75.61455             -200               0             -200               0
1.4697                -0.1763764       -18.61749        -58.54286       -79.66633             -200               0             -200               0
1.47727               -0.1826797       -18.81191        -58.47935       -83.61892             -200               0             -200               0
1.48485               -0.1892594       -19.00898        -58.41892        -87.4674             -200               0             -200               0
1.49242               -0.1961304        -19.2087           -58.36       -91.20742             -200               0             -200               0
1.5                   -0.2033086       -19.41106        -58.30086       -94.83543             -200               0             -200               0
1.50758               -0.2108058       -19.61604        -58.23959       -98.34892             -200               0             -200               0
1.51515               -0.2186374       -19.82362        -58.17413       -101.7468             -200               0             -200               0
1.52273               -0.2268129       -20.03378        -58.10229       -105.0296             -200               0             -200               0
1.5303                -0.2353433       -20.24648        -58.02176       -108.1999             -200               0             -200               0
1.53788                -0.244238       -20.46169        -57.93017       -111.2624             -200               0             -200               0
1.54545               -0.2535033        -20.6794         -57.8252       -114.2247             -200               0             -200               0
1.55303               -0.2631483       -20.89957        -57.70458       -117.0966             -200               0             -200               0
1.56061               -0.2731752       -21.12218        -57.56624       -119.8909             -200               0             -200               0
1.56818               -0.2835904       -21.34721        -57.40837       -122.6226             -200               0             -200               0
1.57576               -0.2943966       -21.57465        -57.22955        -125.309             -200               0             -200               0
1.58333               -0.3055949        -21.8045        -57.02877       -127.9691             -200               0             -200               0
1.59091               -0.3171875       -22.03677        -56.80552       -130.6227             -200               0             -200               0
1.59848               -0.3291757       -22.27148        -56.55983       -133.2899             -200               0             -200               0
1.60606               -0.3415595       -22.50865         -56.2922       -135.9905             -200               0             -200               0
1.61364               -0.3543393       -22.74832        -56.00364       -138.7427             -200               0             -200               0
1.62121               -0.3675167       -22.99056        -55.69557       -141.5633             -200               0             -200               0
1.62879               -0.3810926       -23.23541        -55.36971       -144.4665             -200               0             -200               0
1.63636               -0.3950702       -23.48297        -55.02806       -147.4641             -200               0             -200               0
1.64394               -0.4094514       -23.73331        -54.67272       -150.5652             -200               0             -200               0
1.65152               -0.4242411       -23.98655        -54.30589       -153.7764             -200               0             -200               0
1.65909               -0.4394465       -24.24279        -53.92972       -157.1019             -200               0             -200               0
1.66667               -0.4550746       -24.50216        -53.54629       -160.5435             -200               0             -200               0
1.67424               -0.4711359       -24.76478        -53.15758       -164.1014             -200               0             -200               0
1.68182               -0.4876415       -25.03079        -52.76538       -167.7742             -200               0             -200               0
1.68939               -0.5046068       -25.30033        -52.37134       -171.5591             -200               0             -200               0
1.69697               -0.5220485       -25.57354        -51.97692       -175.4527             -200               0             -200               0
1.70455               -0.5399854       -25.85057         -51.5834       -179.4506             -200               0             -200               0
1.71212               -0.5584393       -26.13158        -51.19191        176.4519             -200               0             -200               0
1.7197                -0.5774353       -26.41669        -50.80339        172.2598             -200               0             -200               0
1.72727               -0.5969986       -26.70607        -50.41866        167.9781             -200               0             -200               0
1.73485               -0.6171592       -26.99983        -50.03842        163.6121             -200               0             -200               0
1.74242               -0.6379486       -27.29813        -49.66322        159.1668             -200               0             -200               0
1.75                  -0.6594002       -27.60107        -49.29354        154.6471             -200               0             -200               0
1.75758               -0.6815484       -27.90877        -48.92975        150.0578             -200               0             -200               0
1.76515               -0.7044304       -28.22135        -48.57216        145.4034             -200               0             -200               0
1.77273               -0.7280845       -28.53889          -48.221        140.6881             -200               0             -200               0
1.7803                -0.7525501       -28.86149        -47.87644        135.9161             -200               0             -200               0
1.78788               -0.7778689       -29.18922        -47.53863        131.0912             -200               0             -200               0
1.79545                -0.804082       -29.52215        -47.20766        126.2168             -200               0             -200               0
1.80303               -0.8312313       -29.86035        -46.88358        121.2965             -200               0             -200               0
1.81061               -0.8593597       -30.20385        -46.56642        116.3333             -200               0             -200               0
1.81818               -0.8885096       -30.55271        -46.25619          111.33             -200               0             -200               0
1.82576               -0.9187251       -30.90698        -45.95287        106.2896             -200               0             -200               0
1.83333               -0.9500491       -31.26668        -45.65645        101.2143             -200               0             -200               0
1.84091               -0.9825249       -31.63185        -45.36687        96.10672             -200               0             -200               0
1.84848                -1.016197       -32.00252        -45.08409         90.9689             -200               0             -200               0
1.85606                -1.051107       -32.37875        -44.80805        85.80292             -200               0             -200               0
1.86364                -1.087303       -32.76055        -44.53868        80.61067             -200               0             -200               0
1.87121                -1.124826       -33.14799        -44.27591         75.3939             -200               0             -200               0
1.87879                -1.163723       -33.54112        -44.01967        70.15426             -200               0             -200               0
1.88636                 -1.20404       -33.94001        -43.76987        64.89329             -200               0             -200               0
1.89394                -1.245826       -34.34474        -43.52645        59.61241             -200               0             -200               0
1.90152                -1.289131       -34.75539        -43.28932        54.31294             -200               0             -200               0
1.90909                -1.334009       -35.17209         -43.0584        48.99614             -200               0             -200               0
1.91667                -1.380514       -35.59494        -42.83362        43.66317             -200               0             -200               0
1.92424                -1.428704       -36.02409        -42.61488        38.31512             -200               0             -200               0
1.93182                -1.478645       -36.45968        -42.40212          32.953             -200               0             -200               0
1.93939                -1.530405       -36.90189        -42.19527        27.57778             -200               0             -200               0
1.94697                -1.584057       -37.35091        -41.99423        22.19035             -200               0             -200               0
1.95455                -1.639682       -37.80692        -41.79895        16.79155             -200               0             -200               0
1.96212                -1.697368       -38.27014        -41.60934        11.38219             -200               0             -200               0
1.9697                 -1.757209       -38.74078        -41.42534        5.962998             -200               0             -200               0
1.97727                -1.819311       -39.21905        -41.24688       0.5346966             -200               0             -200               0
1.98485                -1.883785        -39.7052         -41.0739       -4.902053             -200               0             -200               0
1.99242                -1.950753       -40.19943        -40.90632       -10.34662             -200               0             -200               0
2                      -2.020351       -40.70196         -40.7441       -15.79841             -200               0             -200               0
2.00758                -2.092723       -41.21301        -40.58716       -21.25686             -200               0             -200               0
2.01515                -2.168025       -41.73275        -40.43544       -26.72142             -200               0             -200               0
2.02273                -2.246427       -42.26135        -40.28891        -32.1916             -200               0             -200               0
2.0303                 -2.328112       -42.79896        -40.14749       -37.66689             -200               0             -200               0
2.03788                -2.413274       -43.34566        -40.01114       -43.14683             -200               0             -200               0
2.04545                -2.502125       -43.90153         -39.8798       -48.63099             -200               0             -200               0
2.05303                 -2.59489       -44.46657        -39.75344       -54.11893             -200               0             -200               0
2.06061                -2.691807       -45.04075        -39.63199       -59.61026             -200               0             -200               0
2.06818                -2.793133       -45.62397        -39.51543       -65.10457             -200               0             -200               0
2.07576                -2.899141       -46.21604         -39.4037        -70.6015             -200               0             -200               0
2.08333                -3.010117       -46.81672        -39.29677       -76.10068             -200               0             -200               0
2.09091                -3.126369       -47.42566        -39.19459       -81.60176             -200               0             -200               0
2.09848                 -3.24822       -48.04243        -39.09713       -87.10441             -200               0             -200               0
2.10606                -3.376014       -48.66649        -39.00435        -92.6083             -200               0             -200               0
2.11364                -3.510111       -49.29719        -38.91622       -98.11312             -200               0             -200               0
2.12121                -3.650897       -49.93374        -38.83271       -103.6186             -200               0             -200               0
2.12879                -3.798775       -50.57521        -38.75379       -109.1243             -200               0             -200               0
2.13636                -3.954175       -51.22055        -38.67942       -114.6301             -200               0             -200               0
2.14394                -4.117549       -51.86851        -38.60957       -120.1356             -200               0             -200               0
2.15152                -4.289377       -52.51768        -38.54423       -125.6406             -200               0             -200               0
2.15909                -4.470168       -53.16643        -38.48337       -131.1447             -200               0             -200               0
2.16667                -4.660462        -53.8129        -38.42695       -136.6478             -200               0             -200               0
2.17424                -4.860834       -54.45499        -38.37497       -142.1495             -200               0             -200               0
2.18182                -5.071895       -55.09031         -38.3274       -147.6497             -200               0             -200               0
2.18939                -5.294299       -55.71614        -38.28421       -153.1479             -200               0             -200               0
2.19697                -5.528748        -56.3294         -38.2454        -158.644             -200               0             -200               0
2.20455                -5.775989       -56.92655        -38.21093       -164.1378             -200               0             -200               0
2.21212                -6.036832       -57.50359        -38.18081       -169.6289             -200               0             -200               0
2.2197                 -6.312146       -58.05591          -38.155       -175.1172             -200               0             -200               0
2.22727                -6.602871       -58.57823        -38.13351        179.3977             -200               0             -200               0
2.23485                -6.910027       -59.06446        -38.11631         173.916             -200               0             -200               0
2.24242                -7.234718        -59.5075        -38.10339        168.4379             -200               0             -200               0
2.25                   -7.578144       -59.89914        -38.09475        162.9637             -200               0             -200               0
2.25758                -7.941607       -60.22968        -38.09036        157.4936             -200               0             -200               0
2.26515                -8.326525       -60.48769        -38.09023        152.0279             -200               0             -200               0
2.27273                -8.734429        -60.6596        -38.09435        146.5669             -200               0             -200               0
2.2803                 -9.166973       -60.72913        -38.10271        141.1107             -200               0             -200               0
2.28788                -9.625918       -60.67665         -38.1153        135.6597             -200               0             -200               0
2.29545                -10.11311       -60.47831        -38.13212        130.2142             -200               0             -200               0
2.30303                -10.63046       -60.10489        -38.15317        124.7744             -200               0             -200               0
2.31061                -11.17981       -59.52035        -38.17844        119.3405             -200               0             -200               0
2.31818                -11.76279       -58.67999        -38.20792        113.9129             -200               0             -200               0
2.32576                -12.38058       -57.52815        -38.24163        108.4918             -200               0             -200               0
2.33333                -13.03336       -55.99541        -38.27955        103.0775             -200               0             -200               0
2.34091                -13.71962       -53.99563        -38.32169        97.67029             -200               0             -200               0
2.34848                -14.43484       -51.42346        -38.36805        92.27052             -200               0             -200               0
2.35606                 -15.1696       -48.15397        -38.41862        86.87845             -200               0             -200               0
2.36364                 -15.9068       -44.04818        -38.47342        81.49442             -200               0             -200               0
2.37121                -16.61823       -38.97095        -38.53244        76.11872             -200               0             -200               0
2.37879                -17.26163       -32.82988        -38.59569         70.7517             -200               0             -200               0
2.38636                -17.78132       -25.63951        -38.66317        65.39369             -200               0             -200               0
2.39394                -18.11667       -17.59387        -38.73489        60.04503             -200               0             -200               0
2.40152                -18.22031       -9.095043        -38.81084        54.70609             -200               0             -200               0
2.40909                -18.07816      -0.6790144        -38.89104        49.37722             -200               0             -200               0
2.41667                -17.71629        7.145301        -38.97549        44.05881             -200               0             -200               0
2.42424                -17.18851        14.03839         -39.0642        38.75124             -200               0             -200               0
2.43182                 -16.5554        19.86875        -39.15718        33.45492             -200               0             -200               0
2.43939                -15.86884        24.66333        -39.25442        28.17025             -200               0             -200               0
2.44697                -15.16649        28.53356        -39.35594        22.89767             -200               0             -200               0
2.45455                -14.47264        31.61871        -39.46174        17.63761             -200               0             -200               0
2.46212                -13.80161        34.05445        -39.57183        12.39052             -200               0             -200               0
2.4697                 -13.16099        35.95969        -39.68622         7.15689             -200               0             -200               0
2.47727                -12.55413        37.43344        -39.80491        1.937193             -200               0             -200               0
2.48485                -11.98187        38.55618        -39.92791       -3.268065             -200               0             -200               0