! TOUCHSTONE file generated by CST MICROWAVE STUDIO
! Date and time: Tue Mar 18 20:31:36 2025
! Project name: hairline.cst
! Parameters = {B=12.5; D=160; F=15; Feed=2.85625; Fracture=1; L=100; M=50; R=0.384908; S=1.5; Theta=0; length=57.125; wave=114.25}
! Header version: 2024
! Port assignment regex: !\s*Touchstone port\s*([0-9]+)\s*=\s*(CST MWS port|CST DES external port|CST DES block port)\s*(.+)\s* \(\"(.*)\"\)(\s*mode\s*([0-9]+))?.*
! Touchstone port assignment:
! Touchstone port 1 = CST MWS port 1 ("")
! Touchstone port 2 = CST MWS port 2 ("")
# GHz S DB R 50
1                    -0.02008456       -9.726771        -68.36495         161.905             -200               0             -200               0
1.0066                -0.0208594       -9.814044        -68.29792        156.3359             -200               0             -200               0
1.0132               -0.02165398       -9.901799         -68.2611        150.8608             -200               0             -200               0
1.0198               -0.02246464       -9.990043         -68.2547         145.487             -200               0             -200               0
1.0264               -0.02329162       -10.07879        -68.27909        140.2239             -200               0             -200               0
1.033                -0.02413161       -10.16807        -68.33472        135.0826             -200               0             -200               0
1.0396               -0.02498365       -10.25788        -68.42217        130.0771             -200               0             -200               0
1.0462               -0.02584736       -10.34826        -68.54205        125.2238             -200               0             -200               0
1.05281              -0.02672064       -10.43922        -68.69502        120.5433             -200               0             -200               0
1.05941                -0.027605        -10.5308        -68.88165          116.06             -200               0             -200               0
1.06601              -0.02849885       -10.62301        -69.10239         111.804             -200               0             -200               0
1.07261                -0.029403       -10.71589        -69.35733        107.8116             -200               0             -200               0
1.07921              -0.03031895       -10.80946        -69.64598        104.1267             -200               0             -200               0
1.08581              -0.03124801       -10.90375        -69.96687        100.8022             -200               0             -200               0
1.09241              -0.03219263       -10.99878        -70.31699        97.90092             -200               0             -200               0
1.09901              -0.03315432       -11.09458        -70.69094        95.49553             -200               0             -200               0
1.10561              -0.03413604       -11.19117        -71.07978        93.66713             -200               0             -200               0
1.11221              -0.03514092       -11.28856        -71.46965        92.49944             -200               0             -200               0
1.11881              -0.03617208       -11.38679        -71.84027        92.06692             -200               0             -200               0
1.12541              -0.03723269       -11.48586        -72.16401        92.41377             -200               0             -200               0
1.13201              -0.03832714       -11.58578        -72.40667        93.52405             -200               0             -200               0
1.13861               -0.0394572       -11.68656        -72.53145        95.29005             -200               0             -200               0
1.14521              -0.04062787       -11.78821        -72.50662        97.49637             -200               0             -200               0
1.15182               -0.0418412       -11.89073        -72.31475        99.84033             -200               0             -200               0
1.15842              -0.04310071       -11.99413        -71.95878        101.9923             -200               0             -200               0
1.16502              -0.04440952        -12.0984        -71.46091        103.6703             -200               0             -200               0
1.17162              -0.04576935       -12.20354        -70.85506        104.6898             -200               0             -200               0
1.17822              -0.04718233       -12.30954         -70.1777        104.9725             -200               0             -200               0
1.18482              -0.04865017        -12.4164        -69.46116        104.5237             -200               0             -200               0
1.19142              -0.05017304       -12.52412         -68.7307        103.3994             -200               0             -200               0
1.19802              -0.05175204       -12.63269        -68.00439        101.6793             -200               0             -200               0
1.20462              -0.05338724        -12.7421        -67.29427        99.44784             -200               0             -200               0
1.21122              -0.05507766       -12.85236        -66.60784        96.78498             -200               0             -200               0
1.21782               -0.0568237       -12.96347        -65.94946         93.7617             -200               0             -200               0
1.22442              -0.05862255       -13.07542        -65.32132        90.43897             -200               0             -200               0
1.23102              -0.06047346       -13.18822        -64.72426        86.86826             -200               0             -200               0
1.23762              -0.06237436       -13.30189        -64.15822        83.09264             -200               0             -200               0
1.24422              -0.06432456       -13.41644        -63.62262        79.14811             -200               0             -200               0
1.25083              -0.06631983       -13.53188        -63.11659        75.06477             -200               0             -200               0
1.25743              -0.06836062       -13.64823        -62.63908        70.86793             -200               0             -200               0
1.26403              -0.07044434       -13.76553        -62.18898          66.579             -200               0             -200               0
1.27063              -0.07256961       -13.88381        -61.76518        62.21625             -200               0             -200               0
1.27723                -0.074735       -14.00308        -61.36658        57.79539             -200               0             -200               0
1.28383              -0.07694041        -14.1234        -60.99213        53.33009             -200               0             -200               0
1.29043              -0.07918621       -14.24481        -60.64081        48.83238             -200               0             -200               0
1.29703              -0.08147153       -14.36734        -60.31168        44.31293             -200               0             -200               0
1.30363              -0.08379849       -14.49104        -60.00384        39.78141             -200               0             -200               0
1.31023              -0.08616921       -14.61595        -59.71644        35.24658             -200               0             -200               0
1.31683              -0.08858476       -14.74213        -59.44866        30.71659             -200               0             -200               0
1.32343              -0.09105076       -14.86962        -59.19974        26.19902             -200               0             -200               0
1.33003              -0.09356915       -14.99845        -58.96892        21.70109             -200               0             -200               0
1.33663              -0.09614577       -15.12869        -58.75546        17.22969             -200               0             -200               0
1.34323              -0.09878537       -15.26036        -58.55865        12.79151             -200               0             -200               0
1.34984               -0.1014944       -15.39351        -58.37776        8.393077             -200               0             -200               0
1.35644               -0.1042782       -15.52817        -58.21203        4.040805             -200               0             -200               0
1.36304               -0.1071444       -15.66437        -58.06072      -0.2589532             -200               0             -200               0
1.36964               -0.1100996       -15.80214        -57.92301       -4.499897             -200               0             -200               0
1.37624               -0.1131516       -15.94151        -57.79804       -8.675772             -200               0             -200               0
1.38284               -0.1163067       -16.08248         -57.6849       -12.78038             -200               0             -200               0
1.38944               -0.1195725       -16.22508        -57.58259       -16.80763             -200               0             -200               0
1.39604               -0.1229563       -16.36932        -57.49002       -20.75156             -200               0             -200               0
1.40264               -0.1264646        -16.5152        -57.40599       -24.60645             -200               0             -200               0
1.40924               -0.1301035       -16.66273        -57.32918       -28.36691             -200               0             -200               0
1.41584               -0.1338785        -16.8119        -57.25815       -32.02803             -200               0             -200               0
1.42244                -0.137796       -16.96272        -57.19132       -35.58558             -200               0             -200               0
1.42904               -0.1418599       -17.11518        -57.12695       -39.03614             -200               0             -200               0
1.43564               -0.1460757       -17.26929        -57.06319       -42.37742             -200               0             -200               0
1.44224               -0.1504446       -17.42504        -56.99805       -45.60846             -200               0             -200               0
1.44884               -0.1549721       -17.58242        -56.92944       -48.72992             -200               0             -200               0
1.45545               -0.1596588       -17.74144         -56.8552        -51.7443             -200               0             -200               0
1.46205               -0.1645074        -17.9021        -56.77316       -54.65622             -200               0             -200               0
1.46865               -0.1695186       -18.06441        -56.68117       -57.47253             -200               0             -200               0
1.47525               -0.1746939       -18.22838         -56.5772       -60.20239             -200               0             -200               0
1.48185               -0.1800331       -18.39402        -56.45941       -62.85728             -200               0             -200               0
1.48845               -0.1855375       -18.56135        -56.32619       -65.45074             -200               0             -200               0
1.49505               -0.1912075       -18.73041        -56.17631       -67.99812             -200               0             -200               0
1.50165               -0.1970423       -18.90122        -56.00889       -70.51606             -200               0             -200               0
1.50825               -0.2030442       -19.07382        -55.82353         -73.022             -200               0             -200               0
1.51485               -0.2092144       -19.24825        -55.62024       -75.53349             -200               0             -200               0
1.52145               -0.2155539       -19.42456        -55.39952       -78.06755             -200               0             -200               0
1.52805               -0.2220646       -19.60281        -55.16225       -80.64015             -200               0             -200               0
1.53465               -0.2287499       -19.78304        -54.90968       -83.26561             -200               0             -200               0
1.54125               -0.2356135       -19.96533        -54.64335       -85.95627             -200               0             -200               0
1.54785               -0.2426604       -20.14972        -54.36501       -88.72225             -200               0             -200               0
1.55446               -0.2498966        -20.3363        -54.07656       -91.57136             -200               0             -200               0
1.56106               -0.2573279       -20.52513        -53.77993       -94.50907             -200               0             -200               0
1.56766               -0.2649625       -20.71626        -53.47707       -97.53873             -200               0             -200               0
1.57426               -0.2728095       -20.90977        -53.16986       -100.6617             -200               0             -200               0
1.58086               -0.2808783       -21.10573        -52.86007       -103.8776             -200               0             -200               0
1.58746               -0.2891797       -21.30419        -52.54935       -107.1848             -200               0             -200               0
1.59406               -0.2977241        -21.5052        -52.23922       -110.5801             -200               0             -200               0
1.60066               -0.3065244       -21.70884        -51.93101       -114.0597             -200               0             -200               0
1.60726               -0.3155948       -21.91514        -51.62593        -117.619             -200               0             -200               0
1.61386               -0.3249462       -22.12414        -51.32499       -121.2528             -200               0             -200               0
1.62046               -0.3345927        -22.3359         -51.0291       -124.9557             -200               0             -200               0
1.62706               -0.3445497       -22.55044        -50.73901       -128.7219             -200               0             -200               0
1.63366               -0.3548294        -22.7678        -50.45535       -132.5457             -200               0             -200               0
1.64026               -0.3654463         -22.988        -50.17862       -136.4211             -200               0             -200               0
1.64686               -0.3764135       -23.21105        -49.90923       -140.3425             -200               0             -200               0
1.65347               -0.3877439       -23.43698        -49.64751       -144.3041             -200               0             -200               0
1.66007               -0.3994504       -23.66581        -49.39367       -148.3003             -200               0             -200               0
1.66667               -0.4115455       -23.89754        -49.14787       -152.3255             -200               0             -200               0
1.67327               -0.4240393       -24.13219         -48.9102       -156.3746             -200               0             -200               0
1.67987               -0.4369445       -24.36977        -48.68067       -160.4423             -200               0             -200               0
1.68647               -0.4502706       -24.61029        -48.45926       -164.5236             -200               0             -200               0
1.69307               -0.4640261       -24.85377        -48.24587       -168.6137             -200               0             -200               0
1.69967               -0.4782216       -25.10024        -48.04036       -172.7078             -200               0             -200               0
1.70627                -0.492865       -25.34972        -47.84254       -176.8015             -200               0             -200               0
1.71287                -0.507964       -25.60224        -47.65218        179.1096             -200               0             -200               0
1.71947               -0.5235275       -25.85784        -47.46899        175.0298             -200               0             -200               0
1.72607               -0.5395621       -26.11657        -47.29264        170.9631             -200               0             -200               0
1.73267               -0.5560768       -26.37849        -47.12277        166.9133             -200               0             -200               0
1.73927               -0.5730794       -26.64366        -46.95895        162.8841             -200               0             -200               0
1.74587               -0.5905795       -26.91217        -46.80073         158.879             -200               0             -200               0
1.75248               -0.6085872       -27.18408        -46.64759        154.9012             -200               0             -200               0
1.75908               -0.6271125       -27.45951        -46.49897        150.9537             -200               0             -200               0
1.76568               -0.6461695       -27.73856        -46.35427        147.0392             -200               0             -200               0
1.77228               -0.6657689       -28.02134        -46.21284        143.1601             -200               0             -200               0
1.77888               -0.6859282       -28.30796        -46.07398        139.3183             -200               0             -200               0
1.78548               -0.7066653       -28.59857        -45.93696        135.5155             -200               0             -200               0
1.79208               -0.7279991       -28.89329          -45.801        131.7529             -200               0             -200               0
1.79868               -0.7499504       -29.19226         -45.6653        128.0309             -200               0             -200               0
1.80528                -0.772545       -29.49562        -45.52904        124.3498             -200               0             -200               0
1.81188               -0.7958081       -29.80351        -45.39135        120.7089             -200               0             -200               0
1.81848               -0.8197686       -30.11608        -45.25139        117.1072             -200               0             -200               0
1.82508               -0.8444595       -30.43347         -45.1083        113.5426             -200               0             -200               0
1.83168               -0.8699141       -30.75581        -44.96127        110.0129             -200               0             -200               0
1.83828               -0.8961675       -31.08324         -44.8095        106.5146             -200               0             -200               0
1.84488               -0.9232602       -31.41589        -44.65225        103.0438             -200               0             -200               0
1.85149               -0.9512325       -31.75389        -44.48886        99.59615             -200               0             -200               0
1.85809               -0.9801261       -32.09734        -44.31872        96.16638             -200               0             -200               0
1.86469                -1.009987       -32.44634        -44.14135        92.74886             -200               0             -200               0
1.87129                -1.040861         -32.801        -43.95637        89.33756             -200               0             -200               0
1.87789                -1.072797       -33.16142        -43.76352        85.92612             -200               0             -200               0
1.88449                -1.105845       -33.52767        -43.56267        82.50803             -200               0             -200               0
1.89109                -1.140053       -33.89982        -43.35379        79.07674             -200               0             -200               0
1.89769                -1.175475       -34.27794        -43.13702        75.62576             -200               0             -200               0
1.90429                -1.212163        -34.6621         -42.9126        72.14886             -200               0             -200               0
1.91089                -1.250171       -35.05235        -42.68087        68.64011             -200               0             -200               0
1.91749                -1.289554       -35.44874        -42.44228        65.09405             -200               0             -200               0
1.92409                -1.330368       -35.85133        -42.19739         61.5057             -200               0             -200               0
1.93069                -1.372668       -36.26017        -41.94679        57.87068             -200               0             -200               0
1.93729                -1.416514       -36.67532        -41.69116         54.1852             -200               0             -200               0
1.94389                -1.461964       -37.09682        -41.43119        50.44615             -200               0             -200               0
1.9505                  -1.50908       -37.52475        -41.16763        46.65098             -200               0             -200               0
1.9571                 -1.557924       -37.95917        -40.90121        42.79782             -200               0             -200               0
1.9637                 -1.608563       -38.40017        -40.63266        38.88533             -200               0             -200               0
1.9703                 -1.661062       -38.84784        -40.36271        34.91275             -200               0             -200               0
1.9769                 -1.715496       -39.30227        -40.09206        30.87979             -200               0             -200               0
1.9835                 -1.771939       -39.76357        -39.82138        26.78661             -200               0             -200               0
1.9901                 -1.830472       -40.23188         -39.5513        22.63374             -200               0             -200               0
1.9967                 -1.891179       -40.70731        -39.28243        18.42205             -200               0             -200               0
2.0033                 -1.954154       -41.19004        -39.01531        14.15268             -200               0             -200               0
2.0099                 -2.019492       -41.68019        -38.75046         9.82702             -200               0             -200               0
2.0165                 -2.087303       -42.17794        -38.48836        5.446622             -200               0             -200               0
2.0231                   -2.1577       -42.68346        -38.22942        1.013188             -200               0             -200               0
2.0297                 -2.230804       -43.19691        -37.97405       -3.471469             -200               0             -200               0
2.0363                 -2.306752       -43.71847        -37.72258        -8.00547             -200               0             -200               0
2.0429                 -2.385686       -44.24829        -37.47534       -12.58688             -200               0             -200               0
2.0495                 -2.467765       -44.78653        -37.23261       -17.21374             -200               0             -200               0
2.05611                -2.553155       -45.33334        -36.99463       -21.88409             -200               0             -200               0
2.06271                -2.642041       -45.88881        -36.76163       -26.59598             -200               0             -200               0
2.06931                -2.734616       -46.45305         -36.5338       -31.34748             -200               0             -200               0
2.07591                -2.831091       -47.02611         -36.3113        -36.1367             -200               0             -200               0
2.08251                -2.931695       -47.60798        -36.09429       -40.96178             -200               0             -200               0
2.08911                -3.036666       -48.19866         -35.8829       -45.82093             -200               0             -200               0
2.09571                -3.146267       -48.79802        -35.67722       -50.71239             -200               0             -200               0
2.10231                -3.260773       -49.40593        -35.47737       -55.63447             -200               0             -200               0
2.10891                -3.380479       -50.02213        -35.28341       -60.58552             -200               0             -200               0
2.11551                  -3.5057       -50.64631        -35.09541       -65.56396             -200               0             -200               0
2.12211                 -3.63677       -51.27806        -34.91343       -70.56828             -200               0             -200               0
2.12871                -3.774044       -51.91685        -34.73752       -75.59701             -200               0             -200               0
2.13531                -3.917899       -52.56207        -34.56771       -80.64874             -200               0             -200               0
2.14191                -4.068735       -53.21293        -34.40404       -85.72211             -200               0             -200               0
2.14851                -4.226976       -53.86853        -34.24652       -90.81581             -200               0             -200               0
2.15512                -4.393076       -54.52783        -34.09518       -95.92861             -200               0             -200               0
2.16172                -4.567509       -55.18957        -33.95002       -101.0593             -200               0             -200               0
2.16832                -4.750786       -55.85235        -33.81106       -106.2067             -200               0             -200               0
2.17492                -4.943446       -56.51452         -33.6783       -111.3697             -200               0             -200               0
2.18152                -5.146067        -57.1742        -33.55175       -116.5473             -200               0             -200               0
2.18812                -5.359261       -57.82927         -33.4314       -121.7384             -200               0             -200               0
2.19472                -5.583688       -58.47727        -33.31725        -126.942             -200               0             -200               0
2.20132                -5.820047        -59.1154         -33.2093       -132.1572             -200               0             -200               0
2.20792                -6.069098       -59.74052        -33.10755        -137.383             -200               0             -200               0
2.21452                -6.331649       -60.34896        -33.01198       -142.6185             -200               0             -200               0
2.22112                -6.608582       -60.93658        -32.92259       -147.8629             -200               0             -200               0
2.22772                -6.900846       -61.49857        -32.83938       -153.1153             -200               0             -200               0
2.23432                -7.209471       -62.02945        -32.76233       -158.3748             -200               0             -200               0
2.24092                -7.535582       -62.52282        -32.69144       -163.6408             -200               0             -200               0
2.24752                -7.880399       -62.97123        -32.62671       -168.9123             -200               0             -200               0
2.25413                -8.245263       -63.36599        -32.56813       -174.1887             -200               0             -200               0
2.26073                -8.631638       -63.69681        -32.51568       -179.4692             -200               0             -200               0
2.26733                -9.041123        -63.9515        -32.46937         175.247             -200               0             -200               0
2.27393                -9.475473       -64.11546        -32.42919        169.9607             -200               0             -200               0
2.28053                -9.936594       -64.17109        -32.39513        164.6724             -200               0             -200               0
2.28713                -10.42654       -64.09696        -32.36719        159.3829             -200               0             -200               0
2.29373                -10.94753       -63.86681        -32.34537         154.093             -200               0             -200               0