! TOUCHSTONE file generated by CST MICROWAVE STUDIO
! Date and time: Tue Mar 18 20:31:54 2025
! Project name: hairline.cst
! Parameters = {B=12.5; D=160; F=15; Feed=2.85625; Fracture=2; L=100; M=50; R=0.384908; S=1.5; Theta=270; length=57.125; wave=114.25}
! Header version: 2024
! Port assignment regex: !\s*Touchstone port\s*([0-9]+)\s*=\s*(CST MWS port|CST DES external port|CST DES block port)\s*(.+)\s* \(\"(.*)\"\)(\s*mode\s*([0-9]+))?.*
! Touchstone port assignment:
! Touchstone port 1 = CST MWS port 1 ("")
! Touchstone port 2 = CST MWS port 2 ("")
# GHz S DB R 50
1                    -0.02022002       -10.00604        -68.42315        161.1361             -200               0             -200               0
1.00658              -0.02100352       -10.09508        -68.36011        155.6315             -200               0             -200               0
1.01316              -0.02180569        -10.1846        -68.32709        150.2216             -200               0             -200               0
1.01974              -0.02262552       -10.27461         -68.3243        144.9144             -200               0             -200               0
1.02632              -0.02345905       -10.36512        -68.35208        139.7195             -200               0             -200               0
1.03289              -0.02430764       -10.45615        -68.41089        134.6487             -200               0             -200               0
1.03947              -0.02516665       -10.54772        -68.50122        129.7165             -200               0             -200               0
1.04605              -0.02603617       -10.63984        -68.62367        124.9402             -200               0             -200               0
1.05263              -0.02691559       -10.73256        -68.77878        120.3408             -200               0             -200               0
1.05921              -0.02780332       -10.82589        -68.96702        115.9438             -200               0             -200               0
1.06579              -0.02870174       -10.91985        -69.18867        111.7799             -200               0             -200               0
1.07237              -0.02960802       -11.01449        -69.44359        107.8863             -200               0             -200               0
1.07895              -0.03052731       -11.10982        -69.73099        104.3078             -200               0             -200               0
1.08553              -0.03145712       -11.20587        -70.04896        101.0978             -200               0             -200               0
1.09211              -0.03240199       -11.30267        -70.39393        98.31898             -200               0             -200               0
1.09868              -0.03336388       -11.40024        -70.75976        96.04312             -200               0             -200               0
1.10526              -0.03434407       -11.49861        -71.13665        94.34838             -200               0             -200               0
1.11184              -0.03534834        -11.5978        -71.50978        93.31267             -200               0             -200               0
1.11842              -0.03637703       -11.69782        -71.85803         93.0005             -200               0             -200               0
1.125                -0.03743604        -11.7987        -72.15346        93.44138             -200               0             -200               0
1.13158              -0.03852805       -11.90044        -72.36266        94.60116             -200               0             -200               0
1.13816              -0.03965694       -12.00305        -72.45122        96.35494             -200               0             -200               0
1.14474              -0.04082566       -12.10654        -72.39134        98.47875             -200               0             -200               0
1.15132              -0.04203882       -12.21091        -72.17002        100.6764             -200               0             -200               0
1.15789              -0.04329776       -12.31616        -71.79352        102.6397             -200               0             -200               0
1.16447              -0.04460685        -12.4223        -71.28511        104.1145             -200               0             -200               0
1.17105              -0.04596826       -12.52931        -70.67767        104.9411             -200               0             -200               0
1.17763              -0.04738357       -12.63719         -70.0054        105.0564             -200               0             -200               0
1.18421              -0.04885349       -12.74594        -69.29823        104.4718             -200               0             -200               0
1.19079              -0.05038089       -12.85555        -68.57943         103.243             -200               0             -200               0
1.19737               -0.0519658       -12.96601        -67.86566        101.4457             -200               0             -200               0
1.20395              -0.05360737       -13.07732        -67.16806        99.15981             -200               0             -200               0
1.21053              -0.05530552       -13.18948        -66.49363        96.46065             -200               0             -200               0
1.21711              -0.05705922       -13.30248        -65.84645        93.41521             -200               0             -200               0
1.22368              -0.05886676       -13.41633        -65.22863        90.08125             -200               0             -200               0
1.23026               -0.0607272       -13.53104        -64.64099         86.5077             -200               0             -200               0
1.23684              -0.06263919       -13.64661         -64.0835        82.73567             -200               0             -200               0
1.24342              -0.06459951       -13.76305        -63.55566        78.79966             -200               0             -200               0
1.25                 -0.06660776       -13.88039        -63.05664        74.72864             -200               0             -200               0
1.25658              -0.06865996       -13.99864        -62.58548        70.54706             -200               0             -200               0
1.26316              -0.07075484       -14.11784        -62.14113        66.27566             -200               0             -200               0
1.26974               -0.0728916         -14.238        -61.72253        61.93221             -200               0             -200               0
1.27632              -0.07506826       -14.35917        -61.32864        57.53205             -200               0             -200               0
1.28289               -0.0772835       -14.48138        -60.95846        53.08854             -200               0             -200               0
1.28947              -0.07953973       -14.60468        -60.61102        48.61349             -200               0             -200               0
1.29605              -0.08183345       -14.72911         -60.2854        44.11743             -200               0             -200               0
1.30263              -0.08416981        -14.8547        -59.98074        39.60985             -200               0             -200               0
1.30921              -0.08654751       -14.98152        -59.69621        35.09945             -200               0             -200               0
1.31579              -0.08897084       -15.10961        -59.43103        30.59429             -200               0             -200               0
1.32237              -0.09144213       -15.23901        -59.18443        26.10189             -200               0             -200               0
1.32895              -0.09396644       -15.36977        -58.95569        21.62943             -200               0             -200               0
1.33553              -0.09654836       -15.50194        -58.74407        17.18377             -200               0             -200               0
1.34211              -0.09919137       -15.63555        -58.54887        12.77156             -200               0             -200               0
1.34868               -0.1019042       -15.77065        -58.36937        8.399307             -200               0             -200               0
1.35526               -0.1046908       -15.90728        -58.20481        4.073406             -200               0             -200               0
1.36184               -0.1075602       -16.04546        -58.05446      -0.1998152             -200               0             -200               0
1.36842               -0.1105179       -16.18522        -57.91748       -4.414085             -200               0             -200               0
1.375                 -0.1135731       -16.32659        -57.79304        -8.56318             -200               0             -200               0
1.38158               -0.1167302       -16.46959        -57.68021       -12.64095             -200               0             -200               0
1.38816               -0.1199997       -16.61423        -57.57798       -16.64134             -200               0             -200               0
1.39474               -0.1233876       -16.76051        -57.48525       -20.55847             -200               0             -200               0
1.40132               -0.1268997       -16.90846        -57.40083       -24.38669             -200               0             -200               0
1.40789               -0.1305436       -17.05806        -57.32339       -28.12072             -200               0             -200               0
1.41447               -0.1343252       -17.20933        -57.25147       -31.75578             -200               0             -200               0
1.42105               -0.1382504       -17.36226        -57.18349       -35.28776             -200               0             -200               0
1.42763               -0.1423229       -17.51684        -57.11771       -38.71345             -200               0             -200               0
1.43421                -0.146548       -17.67308        -57.05228       -42.03073             -200               0             -200               0
1.44079               -0.1509289       -17.83096        -56.98521       -45.23887             -200               0             -200               0
1.44737               -0.1554688        -17.9905        -56.91442       -48.33874             -200               0             -200               0
1.45395               -0.1601695       -18.15168        -56.83777       -51.33311             -200               0             -200               0
1.46053               -0.1650333       -18.31451        -56.75311       -54.22683             -200               0             -200               0
1.46711               -0.1700609         -18.479        -56.65834       -57.02696             -200               0             -200               0
1.47368               -0.1752535       -18.64515        -56.55145       -59.74288             -200               0             -200               0
1.48026                -0.180611       -18.81299        -56.43065       -62.38618             -200               0             -200               0
1.48684               -0.1861352       -18.98253         -56.2944       -64.97052             -200               0             -200               0
1.49342               -0.1918259       -19.15379        -56.14152       -67.51122             -200               0             -200               0
1.5                   -0.1976822       -19.32682         -55.9712       -70.02489             -200               0             -200               0
1.50658               -0.2037063       -19.50165        -55.78308       -72.52878             -200               0             -200               0
1.51316                -0.209899       -19.67832        -55.57722       -75.04022             -200               0             -200               0
1.51974               -0.2162608       -19.85687        -55.35417       -77.57596             -200               0             -200               0
1.52632                -0.222795       -20.03738        -55.11483       -80.15163             -200               0             -200               0
1.53289               -0.2295034       -20.21988        -54.86047       -82.78121             -200               0             -200               0
1.53947               -0.2363919       -20.40444        -54.59265       -85.47669             -200               0             -200               0
1.54605               -0.2434629       -20.59114         -54.3131       -88.24787             -200               0             -200               0
1.55263               -0.2507226       -20.78002        -54.02371       -91.10224             -200               0             -200               0
1.55921               -0.2581784       -20.97118         -53.7264       -94.04503             -200               0             -200               0
1.56579               -0.2658379       -21.16466        -53.42309       -97.07936             -200               0             -200               0
1.57237                 -0.27371       -21.36054        -53.11562       -100.2064             -200               0             -200               0
1.57895                -0.281804       -21.55888        -52.80576       -103.4258             -200               0             -200               0
1.58553               -0.2901317       -21.75974        -52.49511       -106.7356             -200               0             -200               0
1.59211               -0.2987039        -21.9632        -52.18517       -110.1328             -200               0             -200               0
1.59868               -0.3075329       -22.16929        -51.87725       -113.6134             -200               0             -200               0
1.60526               -0.3166321       -22.37808        -51.57252       -117.1729             -200               0             -200               0
1.61184               -0.3260146        -22.5896          -51.272       -120.8061             -200               0             -200               0
1.61842               -0.3356948        -22.8039        -50.97656       -124.5076             -200               0             -200               0
1.625                 -0.3456863       -23.02102        -50.68694       -128.2718             -200               0             -200               0
1.63158               -0.3560037       -23.24098        -50.40375       -132.0928             -200               0             -200               0
1.63816                 -0.36666        -23.4638         -50.1275       -135.9649             -200               0             -200               0
1.64474                 -0.37767       -23.68952        -49.85858       -139.8823             -200               0             -200               0
1.65132               -0.3890459       -23.91814        -49.59731       -143.8395             -200               0             -200               0
1.65789               -0.4008019       -24.14969         -49.3439       -147.8307             -200               0             -200               0
1.66447               -0.4129499       -24.38418         -49.0985       -151.8507             -200               0             -200               0
1.67105               -0.4255016        -24.6216         -48.8612        -155.894             -200               0             -200               0
1.67763               -0.4384676       -24.86199        -48.63202       -159.9557             -200               0             -200               0
1.68421               -0.4518592       -25.10534        -48.41091       -164.0307             -200               0             -200               0
1.69079               -0.4656843       -25.35169        -48.19779       -168.1142             -200               0             -200               0
1.69737               -0.4799546       -25.60105        -47.99251       -172.2016             -200               0             -200               0
1.70395               -0.4946762       -25.85344        -47.79488       -176.2884             -200               0             -200               0
1.71053               -0.5098593        -26.1089        -47.60468        179.6299             -200               0             -200               0
1.71711               -0.5255116       -26.36747        -47.42161        175.5572             -200               0             -200               0
1.72368               -0.5416397       -26.62918        -47.24536        171.4978             -200               0             -200               0
1.73026               -0.5582539       -26.89412        -47.07554        167.4553             -200               0             -200               0
1.73684               -0.5753601       -27.16233        -46.91175        163.4335             -200               0             -200               0
1.74342               -0.5929693       -27.43389        -46.75351        159.4358             -200               0             -200               0
1.75                  -0.6110909        -27.7089        -46.60032        155.4655             -200               0             -200               0
1.75658               -0.6297347       -27.98744        -46.45163        151.5254             -200               0             -200               0
1.76316               -0.6489153       -28.26963        -46.30682        147.6182             -200               0             -200               0
1.76974               -0.6686455       -28.55557        -46.16526        143.7464             -200               0             -200               0
1.77632               -0.6889395       -28.84539        -46.02625        139.9119             -200               0             -200               0
1.78289               -0.7098172       -29.13922        -45.88905        136.1164             -200               0             -200               0
1.78947                -0.731295        -29.4372        -45.75289        132.3608             -200               0             -200               0
1.79605               -0.7533985       -29.73946        -45.61697        128.6458             -200               0             -200               0
1.80263               -0.7761501       -30.04614        -45.48047        124.9716             -200               0             -200               0
1.80921               -0.7995769        -30.3574        -45.34253        121.3375             -200               0             -200               0
1.81579               -0.8237078       -30.67337         -45.2023        117.7424             -200               0             -200               0
1.82237               -0.8485758        -30.9942        -45.05894        114.1844             -200               0             -200               0
1.82895               -0.8742142       -31.32003        -44.91162        110.6611             -200               0             -200               0
1.83553               -0.9006606       -31.65099        -44.75956        107.1691             -200               0             -200               0
1.84211               -0.9279531       -31.98722        -44.60202        103.7045             -200               0             -200               0
1.84868               -0.9561347       -32.32884        -44.43833        100.2629             -200               0             -200               0
1.85526               -0.9852474       -32.67595         -44.2679        96.83908             -200               0             -200               0
1.86184                -1.015337       -33.02869        -44.09024        93.42742             -200               0             -200               0
1.86842                 -1.04645       -33.38713        -43.90497        90.02189             -200               0             -200               0
1.875                  -1.078638       -33.75138        -43.71184        86.61614             -200               0             -200               0
1.88158                -1.111947       -34.12151         -43.5107        83.20368             -200               0             -200               0
1.88816                -1.146431        -34.4976        -43.30156        79.77795             -200               0             -200               0
1.89474                -1.182143       -34.87971        -43.08452         76.3325             -200               0             -200               0
1.90132                -1.219135       -35.26792        -42.85983        72.86109             -200               0             -200               0
1.90789                -1.257463       -35.66227        -42.62784        69.35782             -200               0             -200               0
1.91447                -1.297182       -36.06282        -42.38901         65.8172             -200               0             -200               0
1.92105                -1.338348       -36.46961        -42.14386        62.23429             -200               0             -200               0
1.92763                -1.381019       -36.88272        -41.89302         58.6047             -200               0             -200               0
1.93421                -1.425254       -37.30217        -41.63714        54.92467             -200               0             -200               0
1.94079                -1.471113       -37.72803        -41.37693        51.19104             -200               0             -200               0
1.94737                -1.518659       -38.16037        -41.11312         47.4013             -200               0             -200               0
1.95395                -1.567952       -38.59924        -40.84644        43.55357             -200               0             -200               0
1.96053                -1.619063       -39.04474        -40.57764         39.6465             -200               0             -200               0
1.96711                -1.672059       -39.49694        -40.30743        35.67934             -200               0             -200               0
1.97368                -1.727011       -39.95596        -40.03652        31.65179             -200               0             -200               0
1.98026                -1.783999       -40.42188        -39.76557          27.564             -200               0             -200               0
1.98684                -1.843101       -40.89485        -39.49522        23.41649             -200               0             -200               0
1.99342                -1.904405       -41.37498        -39.22607        19.21014             -200               0             -200               0
2                      -1.968002       -41.86244        -38.95866        14.94609             -200               0             -200               0
2.00658                -2.033995       -42.35737        -38.69352         10.6257             -200               0             -200               0
2.01316                -2.102486       -42.85992        -38.43112        6.250534             -200               0             -200               0
2.01974                -2.173595       -43.37027        -38.17187        1.822286             -200               0             -200               0
2.02632                -2.247445        -43.8886        -37.91619       -2.657237             -200               0             -200               0
2.03289                 -2.32417       -44.41506         -37.6644       -7.186159             -200               0             -200               0
2.03947                -2.403918       -44.94983        -37.41684       -11.76255             -200               0             -200               0
2.04605                -2.486845       -45.49305        -37.17378       -16.38446             -200               0             -200               0
2.05263                -2.573122       -46.04486        -36.93547       -21.04992             -200               0             -200               0
2.05921                -2.662935       -46.60538        -36.70213       -25.75699             -200               0             -200               0
2.06579                -2.756479       -47.17471        -36.47395       -30.50376             -200               0             -200               0
2.07237                -2.853968       -47.75288        -36.25111       -35.28831             -200               0             -200               0
2.07895                -2.955632       -48.33993        -36.03375        -40.1088             -200               0             -200               0
2.08553                -3.061713       -48.93581          -35.822       -44.96345             -200               0             -200               0
2.09211                -3.172475       -49.54042        -35.61597       -49.85049             -200               0             -200               0
2.09868                  -3.2882       -50.15362        -35.41576       -54.76823             -200               0             -200               0
2.10526                -3.409184       -50.77517        -35.22144       -59.71504             -200               0             -200               0
2.11184                -3.535748       -51.40473        -35.03309       -64.68933             -200               0             -200               0
2.11842                -3.668229       -52.04191        -34.85075       -69.68958             -200               0             -200               0
2.125                  -3.806988       -52.68619        -34.67448       -74.71433             -200               0             -200               0
2.13158                -3.952407       -53.33692        -34.50432       -79.76218             -200               0             -200               0
2.13816                -4.104894       -53.99335        -34.34029       -84.83175             -200               0             -200               0
2.14474                 -4.26488       -54.65456        -34.18241       -89.92176             -200               0             -200               0
2.15132                -4.432824        -55.3195        -34.03072       -95.03096             -200               0             -200               0
2.15789                -4.609212       -55.98693        -33.88521       -100.1581             -200               0             -200               0
2.16447                -4.794564        -56.6554         -33.7459       -105.3021             -200               0             -200               0
2.17105                 -4.98943       -57.32327         -33.6128       -110.4619             -200               0             -200               0
2.17763                -5.194398       -57.98868        -33.48591       -115.6362             -200               0             -200               0
2.18421                -5.410098       -58.64942        -33.36523       -120.8242             -200               0             -200               0
2.19079                -5.637201       -59.30306        -33.25075       -126.0248             -200               0             -200               0
2.19737                -5.876429       -59.94678        -33.14248        -131.237             -200               0             -200               0
2.20395                -6.128557       -60.57735        -33.04041         -136.46             -200               0             -200               0
2.21053                -6.394422        -61.1911        -32.94453       -141.6928             -200               0             -200               0
2.21711                -6.674926       -61.78379        -32.85484       -146.9346             -200               0             -200               0
2.22368                -6.971053       -62.35059        -32.77133       -152.1844             -200               0             -200               0
2.23026                -7.283866       -62.88588          -32.694       -157.4416             -200               0             -200               0
2.23684                -7.614529       -63.38314        -32.62283       -162.7052             -200               0             -200               0
2.24342                -7.964313       -63.83477        -32.55783       -167.9745             -200               0             -200               0
2.25                   -8.334609       -64.23187        -32.49899       -173.2488             -200               0             -200               0
2.25658                -8.726947       -64.56388         -32.4463       -178.5272             -200               0             -200               0
2.26316                   -9.143       -64.81825        -32.39975         176.191             -200               0             -200               0
2.26974                -9.584608       -64.97992        -32.35934        170.9064             -200               0             -200               0
2.27632                -10.05378       -65.03065        -32.32508        165.6199             -200               0             -200               0
2.28289                -10.55269       -64.94819        -32.29694        160.3321             -200               0             -200               0
2.28947                -11.08367       -64.70512        -32.27494        155.0437             -200               0             -200               0