! TOUCHSTONE file generated by CST MICROWAVE STUDIO
! Date and time: Tue Mar 18 20:31:38 2025
! Project name: hairline.cst
! Parameters = {B=12.5; D=160; F=25; Feed=2.85625; Fracture=2; L=100; M=30; R=0.384908; S=1.5; Theta=0; length=57.125; wave=114.25}
! Header version: 2024
! Port assignment regex: !\s*Touchstone port\s*([0-9]+)\s*=\s*(CST MWS port|CST DES external port|CST DES block port)\s*(.+)\s* \(\"(.*)\"\)(\s*mode\s*([0-9]+))?.*
! Touchstone port assignment:
! Touchstone port 1 = CST MWS port 1 ("")
! Touchstone port 2 = CST MWS port 2 ("")
# GHz S DB R 50
1                     -0.0214802        -9.98412         -66.0186        161.4414             -200               0             -200               0
1.0066               -0.02202491       -10.07116        -66.06876         155.596             -200               0             -200               0
1.0132               -0.02253424       -10.15892        -66.15379        149.8669             -200               0             -200               0
1.0198               -0.02301435       -10.24749        -66.27505         144.265             -200               0             -200               0
1.0264               -0.02347013       -10.33691        -66.43414        138.8044             -200               0             -200               0
1.033                 -0.0239084       -10.42726        -66.63293        133.5031             -200               0             -200               0
1.0396               -0.02433811       -10.51858        -66.87354        128.3842             -200               0             -200               0
1.0462               -0.02477018       -10.61091        -67.15834        123.4769             -200               0             -200               0
1.05281              -0.02521343       -10.70429        -67.48989         118.819             -200               0             -200               0
1.05941              -0.02567923       -10.79872         -67.8708        114.4591             -200               0             -200               0
1.06601              -0.02617825       -10.89424        -68.30347        110.4601             -200               0             -200               0
1.07261              -0.02672232       -10.99082        -68.78964        106.9039             -200               0             -200               0
1.07921              -0.02732068       -11.08847         -69.3294        103.8971             -200               0             -200               0
1.08581              -0.02798538       -11.18716        -69.91963         101.577             -200               0             -200               0
1.09241              -0.02872256       -11.28685        -70.55109        100.1168             -200               0             -200               0
1.09901              -0.02954385       -11.38751        -71.20383        99.72292             -200               0             -200               0
1.10561              -0.03045331       -11.48908        -71.84058        100.6125             -200               0             -200               0
1.11221              -0.03145777       -11.59153        -72.39991        102.9492             -200               0             -200               0
1.11881              -0.03255911       -11.69478        -72.79562         106.719             -200               0             -200               0
1.12541              -0.03376025       -11.79878        -72.93389        111.5818             -200               0             -200               0
1.13201              -0.03506325       -11.90346        -72.75224        116.8363             -200               0             -200               0
1.13861              -0.03646422       -12.00878        -72.25555        121.6325             -200               0             -200               0
1.14521              -0.03795991       -12.11468        -71.51297        125.3112             -200               0             -200               0
1.15182              -0.03954682        -12.2211        -70.61899        127.5828             -200               0             -200               0
1.15842              -0.04121911       -12.32801        -69.65681        128.4668             -200               0             -200               0
1.16502              -0.04296719       -12.43536        -68.68414        128.1403             -200               0             -200               0
1.17162              -0.04478409       -12.54315        -67.73532        126.8223             -200               0             -200               0
1.17822              -0.04666204       -12.65135        -66.82831        124.7163             -200               0             -200               0
1.18482              -0.04858872       -12.75996        -65.97111        121.9915             -200               0             -200               0
1.19142              -0.05055545       -12.86899        -65.16609        118.7818             -200               0             -200               0
1.19802              -0.05255269       -12.97847        -64.41263        115.1914             -200               0             -200               0
1.20462              -0.05457034       -13.08842        -63.70863        111.3009             -200               0             -200               0
1.21122              -0.05659894       -13.19891        -63.05142        107.1727             -200               0             -200               0
1.21782              -0.05863394       -13.30997         -62.4381        102.8558             -200               0             -200               0
1.22442              -0.06066548       -13.42169        -61.86587        98.38865             -200               0             -200               0
1.23102              -0.06268986       -13.53413        -61.33211        93.80217             -200               0             -200               0
1.23762              -0.06470332       -13.64738         -60.8344         89.1213             -200               0             -200               0
1.24422              -0.06670542       -13.76152        -60.37056        84.36652             -200               0             -200               0
1.25083              -0.06869464       -13.87663        -59.93865        79.55488             -200               0             -200               0
1.25743              -0.07067326       -13.99282        -59.53693        74.70077             -200               0             -200               0
1.26403              -0.07264665       -14.11016        -59.16384        69.81654             -200               0             -200               0
1.27063              -0.07461981       -14.22874        -58.81802        64.91297             -200               0             -200               0
1.27723              -0.07659976       -14.34864        -58.49823        59.99963             -200               0             -200               0
1.28383              -0.07859616       -14.46993        -58.20338        55.08514             -200               0             -200               0
1.29043               -0.0806198       -14.59267        -57.93251        50.17748             -200               0             -200               0
1.29703              -0.08268079       -14.71692        -57.68472        45.28409             -200               0             -200               0
1.30363              -0.08479416       -14.84272        -57.45923        40.41208             -200               0             -200               0
1.31023               -0.0869702        -14.9701        -57.25531        35.56836             -200               0             -200               0
1.31683              -0.08922526       -15.09908        -57.07231        30.75976             -200               0             -200               0
1.32343              -0.09156992       -15.22965         -56.9096        25.99311             -200               0             -200               0
1.33003              -0.09401714       -15.36182        -56.76658        21.27537             -200               0             -200               0
1.33663              -0.09658002       -15.49556        -56.64269        16.61367             -200               0             -200               0
1.34323               -0.0992674       -15.63085        -56.53733        12.01544             -200               0             -200               0
1.34984               -0.1020916       -15.76765        -56.44993        7.488405             -200               0             -200               0
1.35644               -0.1050607       -15.90591        -56.37983         3.04072             -200               0             -200               0
1.36304               -0.1081791       -16.04558        -56.32635       -1.319028             -200               0             -200               0
1.36964               -0.1114529        -16.1866         -56.2887       -5.581776             -200               0             -200               0
1.37624               -0.1148836       -16.32891        -56.26599       -9.737977             -200               0             -200               0
1.38284                -0.118473       -16.47247        -56.25718       -13.77761             -200               0             -200               0
1.38944               -0.1222187       -16.61721        -56.26103       -17.69025             -200               0             -200               0
1.39604               -0.1261186       -16.76309         -56.2761       -21.46518             -200               0             -200               0
1.40264               -0.1301677       -16.91007        -56.30066       -25.09156             -200               0             -200               0
1.40924               -0.1343587       -17.05811        -56.33266       -28.55873             -200               0             -200               0
1.41584               -0.1386849       -17.20719         -56.3697       -31.85657             -200               0             -200               0
1.42244               -0.1431358        -17.3573        -56.40896       -34.97607             -200               0             -200               0
1.42904               -0.1477023       -17.50845        -56.44724       -37.90993             -200               0             -200               0
1.43564               -0.1523763       -17.66066        -56.48087       -40.65344             -200               0             -200               0
1.44224               -0.1571455       -17.81396        -56.50581       -43.20535             -200               0             -200               0
1.44884               -0.1620007        -17.9684        -56.51772       -45.56884             -200               0             -200               0
1.45545               -0.1669329       -18.12404        -56.51209       -47.75253             -200               0             -200               0
1.46205               -0.1719333       -18.28097        -56.48441       -49.77109             -200               0             -200               0
1.46865               -0.1769981       -18.43928        -56.43046        -51.6457             -200               0             -200               0
1.47525               -0.1821185       -18.59906        -56.34656        -53.4038             -200               0             -200               0
1.48185               -0.1872936       -18.76044        -56.22986        -55.0783             -200               0             -200               0
1.48845               -0.1925234       -18.92353        -56.07858       -56.70605             -200               0             -200               0
1.49505               -0.1978089       -19.08845        -55.89215       -58.32589             -200               0             -200               0
1.50165               -0.2031534       -19.25534        -55.67127        -59.9763             -200               0             -200               0
1.50825               -0.2085638       -19.42433        -55.41784       -61.69319             -200               0             -200               0
1.51485               -0.2140482       -19.59554        -55.13474         -63.508             -200               0             -200               0
1.52145               -0.2196213        -19.7691        -54.82562       -65.44638             -200               0             -200               0
1.52805               -0.2252944       -19.94511        -54.49458       -67.52755             -200               0             -200               0
1.53465               -0.2310832       -20.12369        -54.14594       -69.76429             -200               0             -200               0
1.54125                -0.237006       -20.30493        -53.78393        -72.1634             -200               0             -200               0
1.54785               -0.2430833        -20.4889        -53.41261        -74.7265             -200               0             -200               0
1.55446               -0.2493318       -20.67568        -53.03563       -77.45099             -200               0             -200               0
1.56106               -0.2557754       -20.86531        -52.65629       -80.33105             -200               0             -200               0
1.56766               -0.2624346       -21.05784        -52.27741       -83.35847             -200               0             -200               0
1.57426               -0.2693302       -21.25327        -51.90138        -86.5235             -200               0             -200               0
1.58086               -0.2764826       -21.45161        -51.53019       -89.81542             -200               0             -200               0
1.58746               -0.2839124       -21.65284        -51.16546       -93.22308             -200               0             -200               0
1.59406               -0.2916362       -21.85696        -50.80847       -96.73522             -200               0             -200               0
1.60066               -0.2996704        -22.0639        -50.46022       -100.3407             -200               0             -200               0
1.60726               -0.3080329       -22.27365        -50.12147       -104.0289             -200               0             -200               0
1.61386               -0.3167313       -22.48612        -49.79277       -107.7894             -200               0             -200               0
1.62046               -0.3257799       -22.70128        -49.47447       -111.6123             -200               0             -200               0
1.62706               -0.3351836       -22.91907        -49.16681       -115.4885             -200               0             -200               0
1.63366               -0.3449491       -23.13942        -48.86988       -119.4092             -200               0             -200               0
1.64026               -0.3550754       -23.36229        -48.58367       -123.3661             -200               0             -200               0
1.64686               -0.3655653       -23.58764        -48.30808       -127.3516             -200               0             -200               0
1.65347               -0.3764155       -23.81544        -48.04292       -131.3582             -200               0             -200               0
1.66007               -0.3876217       -24.04567        -47.78796       -135.3792             -200               0             -200               0
1.66667               -0.3991769       -24.27833        -47.54287       -139.4081             -200               0             -200               0
1.67327               -0.4110738       -24.51343        -47.30729        -143.439             -200               0             -200               0
1.67987               -0.4233041       -24.75104        -47.08079       -147.4661             -200               0             -200               0
1.68647               -0.4358596        -24.9912         -46.8629       -151.4841             -200               0             -200               0
1.69307               -0.4487313         -25.234        -46.65311        -155.488             -200               0             -200               0
1.69967               -0.4619106       -25.47956        -46.45082       -159.4733             -200               0             -200               0
1.70627               -0.4753923       -25.72802        -46.25544       -163.4356             -200               0             -200               0
1.71287               -0.4891703       -25.97952        -46.06629       -167.3712             -200               0             -200               0
1.71947               -0.5032419       -26.23426        -45.88265       -171.2764             -200               0             -200               0
1.72607               -0.5176088       -26.49243        -45.70377       -175.1482             -200               0             -200               0
1.73267               -0.5322745       -26.75426        -45.52884       -178.9841             -200               0             -200               0
1.73927               -0.5472454       -27.01997        -45.35703        177.2182             -200               0             -200               0
1.74587               -0.5625339       -27.28981        -45.18745        173.4601             -200               0             -200               0
1.75248               -0.5781543       -27.56404        -45.01919        169.7427             -200               0             -200               0
1.75908                -0.594128       -27.84293        -44.85132        166.0662             -200               0             -200               0
1.76568                -0.610479       -28.12672        -44.68289        162.4304             -200               0             -200               0
1.77228               -0.6272371       -28.41569        -44.51294        158.8342             -200               0             -200               0
1.77888               -0.6444351       -28.71007        -44.34056        155.2758             -200               0             -200               0
1.78548               -0.6621126       -29.01013        -44.16481        151.7526             -200               0             -200               0
1.79208               -0.6803102        -29.3161        -43.98484        148.2613             -200               0             -200               0
1.79868               -0.6990738       -29.62818        -43.79984        144.7978             -200               0             -200               0
1.80528               -0.7184509       -29.94658        -43.60907        141.3573             -200               0             -200               0
1.81188               -0.7384963       -30.27148        -43.41191        137.9346             -200               0             -200               0
1.81848               -0.7592626       -30.60304        -43.20782        134.5236             -200               0             -200               0
1.82508               -0.7808046        -30.9414         -42.9964         131.118             -200               0             -200               0
1.83168               -0.8031816       -31.28668        -42.77739        127.7113             -200               0             -200               0
1.83828               -0.8264501       -31.63897        -42.55063        124.2966             -200               0             -200               0
1.84488               -0.8506684       -31.99834        -42.31614        120.8671             -200               0             -200               0
1.85149                -0.875896       -32.36486        -42.07405        117.4162             -200               0             -200               0
1.85809               -0.9021894       -32.73857        -41.82463        113.9375             -200               0             -200               0
1.86469               -0.9296069       -33.11951        -41.56825        110.4249             -200               0             -200               0
1.87129               -0.9582044        -33.5077         -41.3054         106.873             -200               0             -200               0
1.87789               -0.9880346       -33.90315        -41.03665        103.2768             -200               0             -200               0
1.88449                -1.019154       -34.30589        -40.76266        99.63203             -200               0             -200               0
1.89109                -1.051612       -34.71593         -40.4841        95.93494             -200               0             -200               0
1.89769                -1.085462        -35.1333        -40.20173         92.1826             -200               0             -200               0
1.90429                -1.120755       -35.55803        -39.91628        88.37268             -200               0             -200               0
1.91089                -1.157542        -35.9902        -39.62853        84.50349             -200               0             -200               0
1.91749                -1.195873       -36.42987        -39.33921        80.57394             -200               0             -200               0
1.92409                -1.235801       -36.87713        -39.04906         76.5835             -200               0             -200               0
1.93069                 -1.27738        -37.3321        -38.75879        72.53213             -200               0             -200               0
1.93729                -1.320666       -37.79495        -38.46905        68.42023             -200               0             -200               0
1.94389                -1.365721       -38.26584         -38.1805        64.24857             -200               0             -200               0
1.9505                 -1.412609       -38.74499         -37.8937        60.01824             -200               0             -200               0
1.9571                 -1.461402       -39.23262        -37.60922        55.73063             -200               0             -200               0
1.9637                 -1.512177       -39.72901        -37.32754        51.38728             -200               0             -200               0
1.9703                 -1.565021       -40.23444        -37.04912        46.98996             -200               0             -200               0
1.9769                 -1.620028       -40.74924        -36.77438        42.54055             -200               0             -200               0
1.9835                 -1.677304       -41.27373        -36.50368          38.041             -200               0             -200               0
1.9901                 -1.736968       -41.80826        -36.23737        33.49335             -200               0             -200               0
1.9967                 -1.799146       -42.35318        -35.97572        28.89966             -200               0             -200               0
2.0033                 -1.863984       -42.90886        -35.71901        24.26201             -200               0             -200               0
2.0099                 -1.931638       -43.47564        -35.46746        19.58245             -200               0             -200               0
2.0165                 -2.002282       -44.05386        -35.22127        14.86305             -200               0             -200               0
2.0231                 -2.076104       -44.64383        -34.98062        10.10582             -200               0             -200               0
2.0297                 -2.153308       -45.24584        -34.74565        5.312731             -200               0             -200               0
2.0363                 -2.234117       -45.86013         -34.5165       0.4856962             -200               0             -200               0
2.0429                 -2.318774       -46.48689        -34.29328       -4.373408             -200               0             -200               0
2.0495                 -2.407534       -47.12625        -34.07607       -9.262775             -200               0             -200               0
2.05611                -2.500674       -47.77827        -33.86495       -14.18066             -200               0             -200               0
2.06271                 -2.59849       -48.44292        -33.65998       -19.12536             -200               0             -200               0
2.06931                -2.701295        -49.1201        -33.46122       -24.09526             -200               0             -200               0
2.07591                -2.809424       -49.80959        -33.26871       -29.08879             -200               0             -200               0
2.08251                -2.923227       -50.51105        -33.08247       -34.10444             -200               0             -200               0
2.08911                -3.043077       -51.22406        -32.90252       -39.14076             -200               0             -200               0
2.09571                -3.169366       -51.94803        -32.72889       -44.19637             -200               0             -200               0
2.10231                -3.302508       -52.68222        -32.56158       -49.26991             -200               0             -200               0
2.10891                -3.442934       -53.42578         -32.4006       -54.36011             -200               0             -200               0
2.11551                -3.591102       -54.17765        -32.24594       -59.46572             -200               0             -200               0
2.12211                -3.747489       -54.93662        -32.09759       -64.58556             -200               0             -200               0
2.12871                -3.912598       -55.70125        -31.95556       -69.71846             -200               0             -200               0
2.13531                -4.086958       -56.46993        -31.81983       -74.86333             -200               0             -200               0
2.14191                -4.271124        -57.2408        -31.69038       -80.01909             -200               0             -200               0
2.14851                -4.465683       -58.01174         -31.5672       -85.18471             -200               0             -200               0
2.15512                -4.671253       -58.78036        -31.45027       -90.35919             -200               0             -200               0
2.16172                -4.888487       -59.54395        -31.33958       -95.54156             -200               0             -200               0
2.16832                -5.118081       -60.29945         -31.2351       -100.7309             -200               0             -200               0
2.17492                -5.360772       -61.04343        -31.13682       -105.9262             -200               0             -200               0
2.18152                -5.617344       -61.77196        -31.04471       -111.1267             -200               0             -200               0
2.18812                 -5.88864       -62.48063        -30.95875       -116.3315             -200               0             -200               0
2.19472                -6.175561       -63.16441        -30.87892       -121.5397             -200               0             -200               0
2.20132                -6.479075       -63.81754        -30.80519       -126.7504             -200               0             -200               0
2.20792                -6.800227       -64.43343        -30.73756        -131.963             -200               0             -200               0
2.21452                -7.140145        -65.0045        -30.67598       -137.1765             -200               0             -200               0
2.22112                -7.500052       -65.52195        -30.62045       -142.3902             -200               0             -200               0
2.22772                -7.881268       -65.97549        -30.57093       -147.6033             -200               0             -200               0
2.23432                -8.285225       -66.35304        -30.52742        -152.815             -200               0             -200               0
2.24092                -8.713468       -66.64033        -30.48987       -158.0246             -200               0             -200               0
2.24752                -9.167658       -66.82028        -30.45828       -163.2312             -200               0             -200               0
2.25413                -9.649557        -66.8724        -30.43262       -168.4342             -200               0             -200               0
2.26073                -10.16101       -66.77182        -30.41286       -173.6328             -200               0             -200               0
2.26733                 -10.7039       -66.48818        -30.39899       -178.8261             -200               0             -200               0
2.27393                -11.28004       -65.98409        -30.39099        175.9864             -200               0             -200               0
2.28053                -11.89099       -65.21327        -30.38882        170.8057             -200               0             -200               0
2.28713                -12.53779       -64.11815        -30.39247        165.6325             -200               0             -200               0
2.29373                -13.22044       -62.62714        -30.40191        160.4676             -200               0             -200               0