! TOUCHSTONE file generated by CST MICROWAVE STUDIO
! Date and time: Tue Mar 18 20:31:54 2025
! Project name: hairline.cst
! Parameters = {B=12.5; D=160; F=15; Feed=2.85625; Fracture=1; L=100; M=50; R=0.384908; S=1.5; Theta=270; length=57.125; wave=114.25}
! Header version: 2024
! Port assignment regex: !\s*Touchstone port\s*([0-9]+)\s*=\s*(CST MWS port|CST DES external port|CST DES block port)\s*(.+)\s* \(\"(.*)\"\)(\s*mode\s*([0-9]+))?.*
! Touchstone port assignment:
! Touchstone port 1 = CST MWS port 1 ("")
! Touchstone port 2 = CST MWS port 2 ("")
# GHz S DB R 50
1                    -0.02025651       -9.750839        -68.02795        160.4385             -200               0             -200               0
1.0066               -0.02102796       -9.838376        -67.97865        154.7361             -200               0             -200               0
1.0132               -0.02181756       -9.926408        -67.96044        149.1285             -200               0             -200               0
1.0198               -0.02262043       -10.01495        -67.97377         143.623             -200               0             -200               0
1.0264               -0.02343736       -10.10402        -68.01922        138.2285             -200               0             -200               0
1.033                -0.02426695       -10.19363        -68.09755        132.9564             -200               0             -200               0
1.0396               -0.02510675       -10.28381        -68.20965        127.8205             -200               0             -200               0
1.0462               -0.02595723       -10.37457        -68.35655         122.838             -200               0             -200               0
1.05281              -0.02681949       -10.46596        -68.53934        118.0303             -200               0             -200               0
1.05941              -0.02768977       -10.55797        -68.75918        113.4236             -200               0             -200               0
1.06601              -0.02857313       -10.65066        -69.01713        109.0503             -200               0             -200               0
1.07261              -0.02946746       -10.74403        -69.31406        104.9507             -200               0             -200               0
1.07921              -0.03037566       -10.83813        -69.65031        101.1745             -200               0             -200               0
1.08581              -0.03129977       -10.93296        -70.02533        97.78345             -200               0             -200               0
1.09241              -0.03224122       -11.02855        -70.43693          94.853             -200               0             -200               0
1.09901              -0.03320306       -11.12493        -70.88028        92.47411             -200               0             -200               0
1.10561              -0.03418892       -11.22211        -71.34627        90.75276             -200               0             -200               0
1.11221              -0.03520039       -11.32012        -71.81943        89.80456             -200               0             -200               0
1.11881              -0.03624178       -11.41896        -72.27531        89.74012             -200               0             -200               0
1.12541              -0.03731639       -11.51864        -72.67841        90.63502             -200               0             -200               0
1.13201              -0.03842756       -11.61918         -72.9826        92.48211             -200               0             -200               0
1.13861              -0.03957723       -11.72059        -73.13704        95.13701             -200               0             -200               0
1.14521              -0.04077094       -11.82285        -73.09908         98.2905             -200               0             -200               0
1.15182               -0.0420098       -11.92599        -72.84968        101.5095             -200               0             -200               0
1.15842              -0.04329687       -12.02998        -72.40167        104.3483             -200               0             -200               0
1.16502               -0.0446348       -12.13485        -71.79399        106.4676             -200               0             -200               0
1.17162              -0.04602378       -12.24056        -71.07689        107.6915             -200               0             -200               0
1.17822              -0.04746803       -12.34714        -70.29789        107.9902             -200               0             -200               0
1.18482              -0.04896558       -12.45456        -69.49454         107.428             -200               0             -200               0
1.19142              -0.05051811       -12.56282         -68.6931        106.1119             -200               0             -200               0
1.19802              -0.05212669       -12.67193        -67.91039         104.159             -200               0             -200               0
1.20462              -0.05378873       -12.78188        -67.15633        101.6787             -200               0             -200               0
1.21122              -0.05550518       -12.89267        -66.43618        98.76583             -200               0             -200               0
1.21782               -0.0572743       -13.00431         -65.7523        95.50015             -200               0             -200               0
1.22442              -0.05909367       -13.11679        -65.10521        91.94707             -200               0             -200               0
1.23102              -0.06096281       -13.23014         -64.4944        88.16001             -200               0             -200               0
1.23762              -0.06287961       -13.34436        -63.91876        84.18258             -200               0             -200               0
1.24422              -0.06484122       -13.45947        -63.37688        80.05045             -200               0             -200               0
1.25083              -0.06684766        -13.5755        -62.86725          75.793             -200               0             -200               0
1.25743              -0.06889476       -13.69246        -62.38833        71.43466             -200               0             -200               0
1.26403              -0.07098379       -13.81039        -61.93863        66.99587             -200               0             -200               0
1.27063              -0.07311179       -13.92933        -61.51673        62.49397             -200               0             -200               0
1.27723              -0.07527819        -14.0493        -61.12131        57.94384             -200               0             -200               0
1.28383              -0.07748428       -14.17035        -60.75111        53.35835             -200               0             -200               0
1.29043              -0.07972986       -14.29253        -60.40501        48.74887             -200               0             -200               0
1.29703              -0.08201547       -14.41587        -60.08193        44.12551             -200               0             -200               0
1.30363              -0.08434378       -14.54042        -59.78088        39.49741             -200               0             -200               0
1.31023              -0.08671688       -14.66622        -59.50096        34.87296             -200               0             -200               0
1.31683              -0.08913732       -14.79333        -59.24128        30.25996             -200               0             -200               0
1.32343              -0.09161032       -14.92178        -59.00104        25.66578             -200               0             -200               0
1.33003              -0.09413936       -15.05162        -58.77944        21.09745             -200               0             -200               0
1.33663              -0.09673036        -15.1829        -58.57573        16.56179             -200               0             -200               0
1.34323              -0.09938867       -15.31564        -58.38915        12.06546             -200               0             -200               0
1.34984               -0.1021208       -15.44989        -58.21895        7.615026             -200               0             -200               0
1.35644               -0.1049328       -15.58568        -58.06436        3.217029             -200               0             -200               0
1.36304               -0.1078316       -15.72303        -57.92459       -1.122007             -200               0             -200               0
1.36964               -0.1108245       -15.86197        -57.79881       -5.395543             -200               0             -200               0
1.37624               -0.1139193       -16.00252        -57.68612       -9.597028             -200               0             -200               0
1.38284               -0.1171221       -16.14469        -57.58555       -13.71992             -200               0             -200               0
1.38944               -0.1204406       -16.28849        -57.49605       -17.75772             -200               0             -200               0
1.39604               -0.1238806       -16.43394        -57.41645       -21.70405             -200               0             -200               0
1.40264               -0.1274484       -16.58103        -57.34547       -25.55274             -200               0             -200               0
1.40924               -0.1311514       -16.72977        -57.28168       -29.29796             -200               0             -200               0
1.41584               -0.1349933       -16.88016         -57.2235       -32.93442             -200               0             -200               0
1.42244               -0.1389801        -17.0322        -57.16919       -36.45751             -200               0             -200               0
1.42904               -0.1431151       -17.18588        -57.11684       -39.86363             -200               0             -200               0
1.43564               -0.1474027        -17.3412        -57.06438        -43.1504             -200               0             -200               0
1.44224               -0.1518451       -17.49817        -57.00961       -46.31705             -200               0             -200               0
1.44884               -0.1564445       -17.65678        -56.95018       -49.36464             -200               0             -200               0
1.45545                -0.161204       -17.81703         -56.8837       -52.29648             -200               0             -200               0
1.46205               -0.1661242       -17.97894        -56.80774        -55.1183             -200               0             -200               0
1.46865               -0.1712059       -18.14251        -56.71993       -57.83847             -200               0             -200               0
1.47525               -0.1764504       -18.30776        -56.61806       -60.46807             -200               0             -200               0
1.48185                -0.181858       -18.47471        -56.50015       -63.02077             -200               0             -200               0
1.48845               -0.1874292       -18.64339        -56.36455        -65.5126             -200               0             -200               0
1.49505               -0.1931649       -18.81383        -56.21001       -67.96147             -200               0             -200               0
1.50165               -0.1990648       -18.98606         -56.0358       -70.38658             -200               0             -200               0
1.50825               -0.2051309       -19.16013        -55.84167       -72.80771             -200               0             -200               0
1.51485               -0.2113643       -19.33608        -55.62792       -75.24445             -200               0             -200               0
1.52145               -0.2177679       -19.51397        -55.39533       -77.71541             -200               0             -200               0
1.52805               -0.2243441       -19.69386        -55.14516       -80.23761             -200               0             -200               0
1.53465               -0.2310968        -19.8758        -54.87902       -82.82591             -200               0             -200               0
1.54125               -0.2380312       -20.05986        -54.59881       -85.49266             -200               0             -200               0
1.54785                -0.245152        -20.2461        -54.30661       -88.24755             -200               0             -200               0
1.55446               -0.2524663       -20.43459         -54.0046       -91.09755             -200               0             -200               0
1.56106               -0.2599819       -20.62539        -53.69497       -94.04708             -200               0             -200               0
1.56766               -0.2677066       -20.81858        -53.37984       -97.09822             -200               0             -200               0
1.57426               -0.2756508       -21.01421        -53.06124        -100.251             -200               0             -200               0
1.58086               -0.2838251       -21.21236        -52.74106       -103.5038             -200               0             -200               0
1.58746                 -0.29224       -21.41307        -52.42099       -106.8534             -200               0             -200               0
1.59406               -0.3009091        -21.6164        -52.10257       -110.2956             -200               0             -200               0
1.60066                -0.309844       -21.82241        -51.78715       -113.8255             -200               0             -200               0
1.60726               -0.3190583       -22.03114        -51.47588       -117.4374             -200               0             -200               0
1.61386               -0.3285654       -22.24263        -51.16978       -121.1254             -200               0             -200               0
1.62046               -0.3383794       -22.45691        -50.86969       -124.8831             -200               0             -200               0
1.62706               -0.3485135       -22.67402         -50.5763       -128.7042             -200               0             -200               0
1.63366               -0.3589819       -22.89398        -50.29018       -132.5824             -200               0             -200               0
1.64026               -0.3697988       -23.11682        -50.01179       -136.5114             -200               0             -200               0
1.64686               -0.3809769       -23.34255        -49.74148       -140.4849             -200               0             -200               0
1.65347               -0.3925289       -23.57119         -49.4795       -144.4969             -200               0             -200               0
1.66007                -0.404467       -23.80275        -49.22602       -148.5416             -200               0             -200               0
1.66667               -0.4168028       -24.03725        -48.98115       -152.6133             -200               0             -200               0
1.67327                -0.429548       -24.27469        -48.74492       -156.7064             -200               0             -200               0
1.67987               -0.4427115       -24.51509        -48.51731       -160.8156             -200               0             -200               0
1.68647               -0.4563044       -24.75846        -48.29822       -164.9357             -200               0             -200               0
1.69307               -0.4703354       -25.00484        -48.08752       -169.0619             -200               0             -200               0
1.69967               -0.4848133       -25.25424        -47.88504       -173.1892             -200               0             -200               0
1.70627                -0.499745       -25.50669        -47.69054       -177.3131             -200               0             -200               0
1.71287               -0.5151407       -25.76224        -47.50373        178.5708             -200               0             -200               0
1.71947               -0.5310067       -26.02092        -47.32431        174.4669             -200               0             -200               0
1.72607               -0.5473524       -26.28281         -47.1519        170.3793             -200               0             -200               0
1.73267               -0.5641842       -26.54795        -46.98608        166.3119             -200               0             -200               0
1.73927               -0.5815125       -26.81643         -46.8264        162.2684             -200               0             -200               0
1.74587               -0.5993472       -27.08833        -46.67234        158.2523             -200               0             -200               0
1.75248               -0.6176977       -27.36375        -46.52336        154.2669             -200               0             -200               0
1.75908               -0.6365755       -27.64278        -46.37884        150.3151             -200               0             -200               0
1.76568               -0.6559976       -27.92555        -46.23812        146.3996             -200               0             -200               0
1.77228               -0.6759743       -28.21216        -46.10052        142.5228             -200               0             -200               0
1.77888               -0.6965259       -28.50276        -45.96528        138.6865             -200               0             -200               0
1.78548               -0.7176713       -28.79747        -45.83161        134.8922             -200               0             -200               0
1.79208                -0.739431       -29.09643        -45.69869         131.141             -200               0             -200               0
1.79868                -0.761828       -29.39979        -45.56565        127.4332             -200               0             -200               0
1.80528               -0.7848904       -29.70769        -45.43161        123.7687             -200               0             -200               0
1.81188               -0.8086452       -30.02026        -45.29568        120.1465             -200               0             -200               0
1.81848               -0.8331249       -30.33767        -45.15694        116.5652             -200               0             -200               0
1.82508               -0.8583616       -30.66003        -45.01453        113.0226             -200               0             -200               0
1.83168               -0.8843928        -30.9875        -44.86757        109.5155             -200               0             -200               0
1.83828               -0.9112564       -31.32021        -44.71526        106.0403             -200               0             -200               0
1.84488               -0.9389928       -31.65827        -44.55684        102.5925             -200               0             -200               0
1.85149               -0.9676446       -32.00181        -44.39164        99.16701             -200               0             -200               0
1.85809               -0.9972565       -32.35093         -44.2191        95.75816             -200               0             -200               0
1.86469                -1.027876       -32.70574        -44.03874        92.35974             -200               0             -200               0
1.87129                 -1.05955       -33.06633        -43.85022        88.96519             -200               0             -200               0
1.87789                -1.092329       -33.43279        -43.65333        85.56768             -200               0             -200               0
1.88449                -1.126262       -33.80518        -43.44802        82.16028             -200               0             -200               0
1.89109                -1.161404        -34.1836        -43.23432        78.73611             -200               0             -200               0
1.89769                -1.197806       -34.56808        -43.01246        75.28843             -200               0             -200               0
1.90429                -1.235521        -34.9587        -42.78274        71.81084             -200               0             -200               0
1.91089                -1.274606        -35.3555        -42.54559        68.29735             -200               0             -200               0
1.91749                -1.315117       -35.75855        -42.30157        64.74248             -200               0             -200               0
1.92409                -1.357109       -36.16789        -42.05127        61.14137             -200               0             -200               0
1.93069                -1.400642       -36.58357        -41.79539        57.48978             -200               0             -200               0
1.93729                -1.445774       -37.00566        -41.53465        53.78416             -200               0             -200               0
1.94389                -1.492568       -37.43422        -41.26982        50.02163             -200               0             -200               0
1.9505                 -1.541084       -37.86931        -41.00167        46.19999             -200               0             -200               0
1.9571                  -1.59139       -38.31101        -40.73098        42.31765             -200               0             -200               0
1.9637                 -1.643551       -38.75942        -40.45851        38.37362             -200               0             -200               0
1.9703                 -1.697641       -39.21462        -40.18501        34.36747             -200               0             -200               0
1.9769                 -1.753732       -39.67673        -39.91119        30.29923             -200               0             -200               0
1.9835                 -1.811907       -40.14587        -39.63772        26.16937             -200               0             -200               0
1.9901                 -1.872248       -40.62217        -39.36526        21.97872             -200               0             -200               0
1.9967                 -1.934845       -41.10579        -39.09438        17.72841             -200               0             -200               0
2.0033                 -1.999797       -41.59687        -38.82563        13.41985             -200               0             -200               0
2.0099                 -2.067209       -42.09557        -38.55953        9.054643             -200               0             -200               0
2.0165                 -2.137191       -42.60207        -38.29651        4.634534             -200               0             -200               0
2.0231                 -2.209867       -43.11655        -38.03701       0.1614033             -200               0             -200               0
2.0297                  -2.28537       -43.63918        -37.78139       -4.362783             -200               0             -200               0
2.0363                 -2.363839       -44.17011        -37.52999       -8.936011             -200               0             -200               0
2.0429                  -2.44543       -44.70953        -37.28309       -13.55623             -200               0             -200               0
2.0495                 -2.530309       -45.25758        -37.04098       -18.22141             -200               0             -200               0
2.05611                -2.618659       -45.81437        -36.80387       -22.92948             -200               0             -200               0
2.06271                 -2.71067       -46.38004        -36.57198       -27.67844             -200               0             -200               0
2.06931                -2.806552       -46.95463        -36.34548       -32.46631             -200               0             -200               0
2.07591                -2.906529       -47.53818        -36.12452       -37.29117             -200               0             -200               0
2.08251                -3.010842       -48.13069        -35.90924       -42.15111             -200               0             -200               0
2.08911                -3.119746       -48.73208        -35.69975       -47.04432             -200               0             -200               0
2.09571                -3.233518       -49.34221        -35.49615       -51.96902             -200               0             -200               0
2.10231                -3.352451       -49.96089        -35.29852       -56.92353             -200               0             -200               0
2.10891                 -3.47686       -50.58783        -35.10693       -61.90618             -200               0             -200               0
2.11551                -3.607074       -51.22264        -34.92143        -66.9154             -200               0             -200               0
2.12211                 -3.74345       -51.86487        -34.74208       -71.94967             -200               0             -200               0
2.12871                -3.886363       -52.51389         -34.5689       -77.00752             -200               0             -200               0
2.13531                -4.036214       -53.16902        -34.40193       -82.08756             -200               0             -200               0
2.14191                -4.193427       -53.82938         -34.2412       -87.18844             -200               0             -200               0
2.14851                -4.358453       -54.49398        -34.08671       -92.30887             -200               0             -200               0
2.15512                -4.531771       -55.16164        -33.93849       -97.44761             -200               0             -200               0
2.16172                 -4.71389       -55.83099        -33.79653       -102.6035             -200               0             -200               0
2.16832                -4.905352       -56.50047        -33.66084       -107.7753             -200               0             -200               0
2.17492                -5.106736       -57.16827        -33.53142        -112.962             -200               0             -200               0
2.18152                -5.318658       -57.83232        -33.40827       -118.1625             -200               0             -200               0
2.18812                -5.541776        -58.4903        -33.29139       -123.3759             -200               0             -200               0
2.19472                  -5.7768       -59.13948        -33.18076        -128.601             -200               0             -200               0
2.20132                -6.024489        -59.7768        -33.07639        -133.837             -200               0             -200               0
2.20792                 -6.28566       -60.39876        -32.97826        -139.083             -200               0             -200               0
2.21452                  -6.5612        -61.0013        -32.88637        -144.338             -200               0             -200               0
2.22112                -6.852066       -61.57982        -32.80071       -149.6013             -200               0             -200               0
2.22772                -7.159299       -62.12895        -32.72127       -154.8719             -200               0             -200               0
2.23432                -7.484036       -62.64253        -32.64803        -160.149             -200               0             -200               0
2.24092                -7.827517       -63.11332          -32.581       -165.4319             -200               0             -200               0
2.24752                -8.191099       -63.53289        -32.52016       -170.7198             -200               0             -200               0
2.25413                -8.576275       -63.89125         -32.4655        -176.012             -200               0             -200               0
2.26073                -8.984679       -64.17658        -32.41702        178.6924             -200               0             -200               0
2.26733                -9.418109       -64.37468        -32.37471        173.3941             -200               0             -200               0
2.27393                -9.878533       -64.46844        -32.33856        168.0937             -200               0             -200               0
2.28053                -10.36809       -64.43701        -32.30857        162.7921             -200               0             -200               0
2.28713                 -10.8891       -64.25478        -32.28474        157.4898             -200               0             -200               0
2.29373                -11.44399       -63.88999        -32.26705        152.1877             -200               0             -200               0