! TOUCHSTONE file generated by CST MICROWAVE STUDIO
! Date and time: Tue Mar 18 20:31:51 2025
! Project name: hairline.cst
! Parameters = {B=12.5; D=160; F=15; Feed=2.85625; Fracture=0.5; L=100; M=30; R=0.384908; S=1.5; Theta=270; length=57.125; wave=114.25}
! Header version: 2024
! Port assignment regex: !\s*Touchstone port\s*([0-9]+)\s*=\s*(CST MWS port|CST DES external port|CST DES block port)\s*(.+)\s* \(\"(.*)\"\)(\s*mode\s*([0-9]+))?.*
! Touchstone port assignment:
! Touchstone port 1 = CST MWS port 1 ("")
! Touchstone port 2 = CST MWS port 2 ("")
# GHz S DB R 50
1                    -0.02133461       -9.743936        -66.76249        176.5732             -200               0             -200               0
1.00658              -0.02199394       -9.829799        -66.77967        171.0803             -200               0             -200               0
1.01316              -0.02264274       -9.916253        -66.83179        165.7002             -200               0             -200               0
1.01974              -0.02328225       -10.00333        -66.91997        160.4449             -200               0             -200               0
1.02632              -0.02391398       -10.09109        -67.04554        155.3292             -200               0             -200               0
1.03289              -0.02454075       -10.17955        -67.21005        150.3721             -200               0             -200               0
1.03947              -0.02516626       -10.26876        -67.41528        145.5971             -200               0             -200               0
1.04605               -0.0257949       -10.35875        -67.66313        141.0343             -200               0             -200               0
1.05263              -0.02643164       -10.44954        -67.95561        136.7214             -200               0             -200               0
1.05921              -0.02708054       -10.54117        -68.29463        132.7068             -200               0             -200               0
1.06579              -0.02774838       -10.63366        -68.68172        129.0519             -200               0             -200               0
1.07237              -0.02844097       -10.72701        -69.11748        125.8356             -200               0             -200               0
1.07895               -0.0291639       -10.82124        -69.60065         123.158             -200               0             -200               0
1.08553              -0.02992329       -10.91634        -70.12652        121.1452             -200               0             -200               0
1.09211              -0.03072452       -11.01233        -70.68436        119.9507             -200               0             -200               0
1.09868              -0.03157348       -11.10918        -71.25348        119.7496             -200               0             -200               0
1.10526              -0.03247482       -11.20689        -71.79819        120.7138             -200               0             -200               0
1.11184              -0.03343371       -11.30544        -72.26345        122.9552             -200               0             -200               0
1.11842              -0.03445291        -11.4048        -72.57634        126.4275             -200               0             -200               0
1.125                -0.03553529       -11.50496        -72.66098        130.8235             -200               0             -200               0
1.13158              -0.03668271       -11.60589        -72.46757        135.5621             -200               0             -200               0
1.13816              -0.03789702       -11.70757        -71.99819        139.9476             -200               0             -200               0
1.14474              -0.03917862       -11.80996         -71.3055        143.4166             -200               0             -200               0
1.15132              -0.04052629       -11.91305        -70.46586        145.6842             -200               0             -200               0
1.15789              -0.04193716       -12.01681         -69.5509        146.7208             -200               0             -200               0
1.16447              -0.04341135       -12.12122        -68.61389        146.6461             -200               0             -200               0
1.17105              -0.04494372       -12.22626        -67.68896        145.6345             -200               0             -200               0
1.17763              -0.04653104       -12.33193        -66.79561        143.8607             -200               0             -200               0
1.18421              -0.04816882       -12.43822        -65.94375        141.4771             -200               0             -200               0
1.19079              -0.04985232       -12.54513        -65.13749        138.6086             -200               0             -200               0
1.19737              -0.05157661       -12.65266        -64.37761        135.3548             -200               0             -200               0
1.20395              -0.05333654       -12.76084         -63.6631        131.7943             -200               0             -200               0
1.21053              -0.05512719       -12.86969        -62.99208        127.9892             -200               0             -200               0
1.21711              -0.05694378       -12.97923        -62.36227        123.9884             -200               0             -200               0
1.22368              -0.05878262        -13.0895        -61.77131        119.8311             -200               0             -200               0
1.23026              -0.06063885       -13.20053        -61.21688        115.5487             -200               0             -200               0
1.23684              -0.06251081       -13.31239        -60.69681        111.1671             -200               0             -200               0
1.24342              -0.06439455        -13.4251        -60.20907        106.7073             -200               0             -200               0
1.25                 -0.06629043       -13.53874        -59.75183         102.187             -200               0             -200               0
1.25658              -0.06819831       -13.65336         -59.3234        97.62136             -200               0             -200               0
1.26316              -0.07011797       -13.76901        -58.92228        93.02314             -200               0             -200               0
1.26974              -0.07205222       -13.88576        -58.54708        88.40362             -200               0             -200               0
1.27632              -0.07400434       -14.00366        -58.19656        83.77277             -200               0             -200               0
1.28289               -0.0759783       -14.12277        -57.86958        79.13953             -200               0             -200               0
1.28947              -0.07797859       -14.24315         -57.5651        74.51212             -200               0             -200               0
1.29605              -0.08001233       -14.36484        -57.28216        69.89816             -200               0             -200               0
1.30263              -0.08208591       -14.48789        -57.01987        65.30484             -200               0             -200               0
1.30921              -0.08420703       -14.61233        -56.77738        60.73906             -200               0             -200               0
1.31579              -0.08638344        -14.7382         -56.5539         56.2075             -200               0             -200               0
1.32237              -0.08862321       -14.86552        -56.34865        51.71675             -200               0             -200               0
1.32895              -0.09093623       -14.99431        -56.16087        47.27335             -200               0             -200               0
1.33553              -0.09332907       -15.12459        -55.98979        42.88384             -200               0             -200               0
1.34211              -0.09581064       -15.25635        -55.83464        38.55481             -200               0             -200               0
1.34868              -0.09838907        -15.3896        -55.69459        34.29294             -200               0             -200               0
1.35526                 -0.10107       -15.52433        -55.56878          30.105             -200               0             -200               0
1.36184               -0.1038616       -15.66052        -55.45627        25.99786             -200               0             -200               0
1.36842               -0.1067679       -15.79815        -55.35606        21.97842             -200               0             -200               0
1.375                 -0.1097933       -15.93721        -55.26701         18.0536             -200               0             -200               0
1.38158               -0.1129424       -16.07767        -55.18788        14.23023             -200               0             -200               0
1.38816               -0.1162155       -16.21952        -55.11726        10.51497             -200               0             -200               0
1.39474               -0.1196144       -16.36273        -55.05359        6.914078             -200               0             -200               0
1.40132               -0.1231393       -16.50728        -54.99515        3.433278             -200               0             -200               0
1.40789               -0.1267874       -16.65315        -54.93998      0.07745064             -200               0             -200               0
1.41447               -0.1305576       -16.80035        -54.88597       -3.149649             -200               0             -200               0
1.42105               -0.1344459       -16.94886        -54.83079       -6.245744             -200               0             -200               0
1.42763               -0.1384495       -17.09868        -54.77197       -9.210423             -200               0             -200               0
1.43421               -0.1425625       -17.24983        -54.70689       -12.04552             -200               0             -200               0
1.44079               -0.1467801       -17.40234        -54.63285       -14.75547             -200               0             -200               0
1.44737               -0.1510981       -17.55624        -54.54718       -17.34763             -200               0             -200               0
1.45395               -0.1555103       -17.71155        -54.44728       -19.83245             -200               0             -200               0
1.46053               -0.1600128       -17.86835        -54.33076       -22.22349             -200               0             -200               0
1.46711               -0.1646009       -18.02668        -54.19554       -24.53723             -200               0             -200               0
1.47368                -0.169272       -18.18663        -54.03999       -26.79267             -200               0             -200               0
1.48026                -0.174023       -18.34826        -53.86296       -29.01071             -200               0             -200               0
1.48684               -0.1788533       -18.51168        -53.66392       -31.21335             -200               0             -200               0
1.49342               -0.1837632       -18.67697        -53.44294       -33.42278             -200               0             -200               0
1.5                   -0.1887552       -18.84423        -53.20067       -35.66042             -200               0             -200               0
1.50658               -0.1938318       -19.01356        -52.93834       -37.94614             -200               0             -200               0
1.51316               -0.1989988       -19.18508        -52.65762       -40.29748             -200               0             -200               0
1.51974               -0.2042634       -19.35889        -52.36056       -42.72918             -200               0             -200               0
1.52632               -0.2096352       -19.53509        -52.04944        -45.2529             -200               0             -200               0
1.53289               -0.2151234       -19.71379        -51.72666       -47.87716             -200               0             -200               0
1.53947               -0.2207416       -19.89508        -51.39469       -50.60749             -200               0             -200               0
1.54605               -0.2265036       -20.07906        -51.05591       -53.44661             -200               0             -200               0
1.55263               -0.2324244        -20.2658         -50.7126       -56.39486             -200               0             -200               0
1.55921               -0.2385203       -20.45538        -50.36685       -59.45053             -200               0             -200               0
1.56579               -0.2448084       -20.64788        -50.02058       -62.61026             -200               0             -200               0
1.57237               -0.2513078       -20.84334        -49.67547       -65.86944             -200               0             -200               0
1.57895               -0.2580355        -21.0418        -49.33302        -69.2225             -200               0             -200               0
1.58553               -0.2650113       -21.24331        -48.99449       -72.66322             -200               0             -200               0
1.59211               -0.2722523       -21.44788        -48.66098       -76.18493             -200               0             -200               0
1.59868               -0.2797768       -21.65553        -48.33337       -79.78075             -200               0             -200               0
1.60526               -0.2876028       -21.86626        -48.01239       -83.44372             -200               0             -200               0
1.61184               -0.2957443       -22.08007        -47.69864       -87.16688             -200               0             -200               0
1.61842               -0.3042198       -22.29694        -47.39257        -90.9434             -200               0             -200               0
1.625                 -0.3130398       -22.51686         -47.0945        -94.7666             -200               0             -200               0
1.63158               -0.3222177        -22.7398        -46.80468          -98.63             -200               0             -200               0
1.63816                -0.331765       -22.96576        -46.52324       -102.5274             -200               0             -200               0
1.64474                 -0.34169        -23.1947        -46.25024       -106.4527             -200               0             -200               0
1.65132               -0.3519994       -23.42661        -45.98566       -110.4003             -200               0             -200               0
1.65789               -0.3627002       -23.66148        -45.72942       -114.3645             -200               0             -200               0
1.66447               -0.3737956       -23.89929        -45.48138       -118.3402             -200               0             -200               0
1.67105               -0.3852896       -24.14007        -45.24134       -122.3223             -200               0             -200               0
1.67763               -0.3971832       -24.38382        -45.00905        -126.306             -200               0             -200               0
1.68421               -0.4094789       -24.63057        -44.78421       -130.2869             -200               0             -200               0
1.69079               -0.4221757       -24.88037        -44.56647       -134.2606             -200               0             -200               0
1.69737               -0.4352751       -25.13327        -44.35545       -138.2231             -200               0             -200               0
1.70395               -0.4487764       -25.38935        -44.15071       -142.1706             -200               0             -200               0
1.71053                -0.462682       -25.64871        -43.95176       -146.0996             -200               0             -200               0
1.71711               -0.4769932       -25.91144        -43.75809       -150.0068             -200               0             -200               0
1.72368               -0.4917119       -26.17769        -43.56912       -153.8895             -200               0             -200               0
1.73026               -0.5068461       -26.44759        -43.38427       -157.7449             -200               0             -200               0
1.73684               -0.5223998       -26.72131        -43.20288       -161.5708             -200               0             -200               0
1.74342               -0.5383837         -26.999        -43.02428       -165.3655             -200               0             -200               0
1.75                   -0.554811       -27.28087        -42.84776       -169.1274             -200               0             -200               0
1.75658               -0.5716961       -27.56711        -42.67258       -172.8558             -200               0             -200               0
1.76316               -0.5890568       -27.85791        -42.49799       -176.5501             -200               0             -200               0
1.76974               -0.6069151       -28.15349         -42.3232        179.7896             -200               0             -200               0
1.77632               -0.6252984       -28.45407        -42.14746        176.1625             -200               0             -200               0
1.78289               -0.6442341       -28.75986        -41.96997        172.5675             -200               0             -200               0
1.78947               -0.6637559       -29.07106        -41.78999        169.0027             -200               0             -200               0
1.79605               -0.6839002        -29.3879        -41.60678        165.4657             -200               0             -200               0
1.80263               -0.7047063       -29.71058        -41.41966        161.9533             -200               0             -200               0
1.80921               -0.7262189        -30.0393        -41.22798         158.462             -200               0             -200               0
1.81579               -0.7484841       -30.37422        -41.03118        154.9876             -200               0             -200               0
1.82237                -0.771552       -30.71554        -40.82876        151.5256             -200               0             -200               0
1.82895               -0.7954744       -31.06341        -40.62033        148.0708             -200               0             -200               0
1.83553               -0.8203061       -31.41798        -40.40558        144.6179             -200               0             -200               0
1.84211               -0.8461056       -31.77938        -40.18431        141.1616             -200               0             -200               0
1.84868               -0.8729315       -32.14773        -39.95642         137.696             -200               0             -200               0
1.85526               -0.9008431       -32.52312        -39.72193        134.2155             -200               0             -200               0
1.86184                -0.929904       -32.90566        -39.48097        130.7147             -200               0             -200               0
1.86842                -0.960177       -33.29541        -39.23375        127.1881             -200               0             -200               0
1.875                 -0.9917261       -33.69244         -38.9806        123.6308             -200               0             -200               0
1.88158                -1.024618       -34.09681        -38.72191        120.0381             -200               0             -200               0
1.88816                -1.058918       -34.50855        -38.45815        116.4058             -200               0             -200               0
1.89474                -1.094692       -34.92772        -38.18986        112.7302             -200               0             -200               0
1.90132                -1.132008       -35.35435        -37.91761         109.008             -200               0             -200               0
1.90789                -1.170936       -35.78847        -37.64201        105.2366             -200               0             -200               0
1.91447                -1.211545       -36.23012        -37.36369        101.4138             -200               0             -200               0
1.92105                -1.253907       -36.67933        -37.08328        97.53801             -200               0             -200               0
1.92763                -1.298097       -37.13614        -36.80144        93.60803             -200               0             -200               0
1.93421                -1.344188       -37.60061        -36.51878        89.62321             -200               0             -200               0
1.94079                 -1.39226       -38.07278        -36.23591        85.58325             -200               0             -200               0
1.94737                -1.442397       -38.55271        -35.95342        81.48828             -200               0             -200               0
1.95395                -1.494683       -39.04047        -35.67188        77.33872             -200               0             -200               0
1.96053                -1.549211       -39.53614         -35.3918        73.13532             -200               0             -200               0
1.96711                -1.606075       -40.03979        -35.11369        68.87905             -200               0             -200               0
1.97368                -1.665381       -40.55151          -34.838        64.57109             -200               0             -200               0
1.98026                -1.727237       -41.07139        -34.56515        60.21279             -200               0             -200               0
1.98684                -1.791763       -41.59954        -34.29553        55.80567             -200               0             -200               0
1.99342                -1.859082       -42.13602         -34.0295        51.35129             -200               0             -200               0
2                      -1.929334       -42.68092        -33.76737        46.85132             -200               0             -200               0
2.00658                -2.002663       -43.23432        -33.50944        42.30751             -200               0             -200               0
2.01316                -2.079227       -43.79626        -33.25597         37.7216             -200               0             -200               0
2.01974                -2.159193       -44.36677        -33.00719        33.09536             -200               0             -200               0
2.02632                -2.242746       -44.94586         -32.7633        28.43057             -200               0             -200               0
2.03289                -2.330077       -45.53349        -32.52449        23.72898             -200               0             -200               0
2.03947                -2.421396       -46.12958        -32.29092        18.99233             -200               0             -200               0
2.04605                -2.516922       -46.73398        -32.06274        14.22233             -200               0             -200               0
2.05263                -2.616896       -47.34653        -31.84006        9.420659             -200               0             -200               0
2.05921                -2.721567       -47.96695        -31.62299        4.588942             -200               0             -200               0
2.06579                -2.831202        -48.5949        -31.41163      -0.2712267             -200               0             -200               0
2.07237                -2.946086       -49.22995        -31.20604       -5.158305             -200               0             -200               0
2.07895                 -3.06652       -49.87157        -31.00631       -10.07079             -200               0             -200               0
2.08553                -3.192818       -50.51912        -30.81249       -15.00724             -200               0             -200               0
2.09211                -3.325318       -51.17183        -30.62462       -19.96625             -200               0             -200               0
2.09868                -3.464368       -51.82881        -30.44275       -24.94647             -200               0             -200               0
2.10526                -3.610342       -52.48901         -30.2669       -29.94658             -200               0             -200               0
2.11184                -3.763628       -53.15123         -30.0971       -34.96531             -200               0             -200               0
2.11842                -3.924636       -53.81408        -29.93336       -40.00146             -200               0             -200               0
2.125                  -4.093796       -54.47595        -29.77571       -45.05383             -200               0             -200               0
2.13158                -4.271563       -55.13506        -29.62416        -50.1213             -200               0             -200               0
2.13816                -4.458407       -55.78936         -29.4787       -55.20275             -200               0             -200               0
2.14474                 -4.65483       -56.43654        -29.33935       -60.29711             -200               0             -200               0
2.15132                -4.861354       -57.07398        -29.20611       -65.40336             -200               0             -200               0
2.15789                 -5.07853       -57.69875        -29.07896       -70.52049             -200               0             -200               0
2.16447                -5.306939       -58.30751        -28.95791       -75.64753             -200               0             -200               0
2.17105                 -5.54719       -58.89653        -28.84296       -80.78353             -200               0             -200               0
2.17763                -5.799925       -59.46158        -28.73409       -85.92757             -200               0             -200               0
2.18421                -6.065821       -59.99784         -28.6313       -91.07876             -200               0             -200               0
2.19079                -6.345587       -60.49992        -28.53459       -96.23621             -200               0             -200               0
2.19737                -6.639975       -60.96162        -28.44393       -101.3991             -200               0             -200               0
2.20395                -6.949769       -61.37589        -28.35932       -106.5665             -200               0             -200               0
2.21053                -7.275791       -61.73467        -28.28076       -111.7377             -200               0             -200               0
2.21711                -7.618898       -62.02869        -28.20823       -116.9118             -200               0             -200               0
2.22368                -7.979974       -62.24723        -28.14172        -122.088             -200               0             -200               0
2.23026                -8.359921       -62.37791        -28.08121       -127.2656             -200               0             -200               0
2.23684                -8.759643       -62.40626        -28.02671       -132.4437             -200               0             -200               0
2.24342                -9.180017       -62.31541         -27.9782       -137.6216             -200               0             -200               0
2.25                   -9.621853       -62.08556        -27.93566       -142.7985             -200               0             -200               0
2.25658                -10.08583       -61.69336         -27.8991       -147.9737             -200               0             -200               0
2.26316                -10.57239       -61.11134        -27.86849       -153.1463             -200               0             -200               0
2.26974                -11.08162       -60.30706        -27.84382       -158.3156             -200               0             -200               0
2.27632                  -11.613       -59.24229         -27.8251       -163.4808             -200               0             -200               0
2.28289                -12.16515       -57.87241         -27.8123       -168.6411             -200               0             -200               0
2.28947                -12.73537       -56.14585        -27.80541       -173.7959             -200               0             -200               0