! TOUCHSTONE file generated by CST MICROWAVE STUDIO
! Date and time: Tue Mar 18 20:31:41 2025
! Project name: hairline.cst
! Parameters = {B=12.5; D=160; F=15; Feed=2.85625; Fracture=1; L=100; M=30; R=0.384908; S=1.5; Theta=90; length=57.125; wave=114.25}
! Header version: 2024
! Port assignment regex: !\s*Touchstone port\s*([0-9]+)\s*=\s*(CST MWS port|CST DES external port|CST DES block port)\s*(.+)\s* \(\"(.*)\"\)(\s*mode\s*([0-9]+))?.*
! Touchstone port assignment:
! Touchstone port 1 = CST MWS port 1 ("")
! Touchstone port 2 = CST MWS port 2 ("")
# GHz S DB R 50
1                    -0.02146939       -9.738049        -66.38002        174.7983             -200               0             -200               0
1.00658              -0.02211048       -9.823696        -66.41665        169.1198             -200               0             -200               0
1.01316              -0.02273644       -9.909951        -66.48948        163.5501             -200               0             -200               0
1.01974              -0.02335086       -9.996863        -66.59998           158.1             -200               0             -200               0
1.02632              -0.02395425       -10.08447        -66.74992        152.7832             -200               0             -200               0
1.03289              -0.02455079       -10.17282         -66.9414        147.6175             -200               0             -200               0
1.03947              -0.02514628       -10.26195        -67.17689        142.6257             -200               0             -200               0
1.04605              -0.02574301       -10.35189        -67.45919        137.8369             -200               0             -200               0
1.05263              -0.02634902       -10.44268        -67.79144        133.2891             -200               0             -200               0
1.05921              -0.02696999       -10.53432        -68.17705        129.0317             -200               0             -200               0
1.06579               -0.0276112       -10.62685         -68.6195        125.1294             -200               0             -200               0
1.07237              -0.02828011       -10.72028        -69.12191        121.6683             -200               0             -200               0
1.07895              -0.02898288        -10.8146        -69.68617        118.7627             -200               0             -200               0
1.08553              -0.02972688       -10.90981        -70.31134        116.5644             -200               0             -200               0
1.09211               -0.0305175       -11.00592        -70.99047        115.2721             -200               0             -200               0
1.09868              -0.03136092       -11.10291         -71.7051        115.1355             -200               0             -200               0
1.10526              -0.03226137       -11.20075        -72.41646        116.4374             -200               0             -200               0
1.11184               -0.0332237       -11.29942         -73.0545        119.4221             -200               0             -200               0
1.11842              -0.03425131       -11.39891        -73.51308        124.1313             -200               0             -200               0
1.125                -0.03534781       -11.49918        -73.67015        130.1754             -200               0             -200               0
1.13158              -0.03651316       -11.60019        -73.44396        136.6561             -200               0             -200               0
1.13816              -0.03774929       -11.70193        -72.84738        142.4806             -200               0             -200               0
1.14474              -0.03905466       -11.80435        -71.97847        146.8656             -200               0             -200               0
1.15132              -0.04042872       -11.90744        -70.95912        149.5485             -200               0             -200               0
1.15789              -0.04186859       -12.01117        -69.88671        150.6431             -200               0             -200               0
1.16447              -0.04337044       -12.11551        -68.82229        150.4154             -200               0             -200               0
1.17105              -0.04493163       -12.22045        -67.79833        149.1444             -200               0             -200               0
1.17763              -0.04654582       -12.32598        -66.82945        147.0681             -200               0             -200               0
1.18421              -0.04820999        -12.4321        -65.92046        144.3737             -200               0             -200               0
1.19079              -0.04991627       -12.53882        -65.07113        141.2039             -200               0             -200               0
1.19737              -0.05166018       -12.64613        -64.27885        137.6663             -200               0             -200               0
1.20395              -0.05343585       -12.75406        -63.54009        133.8425             -200               0             -200               0
1.21053              -0.05523767       -12.86264        -62.85106        129.7948             -200               0             -200               0
1.21711              -0.05706132        -12.9719        -62.20807         125.571             -200               0             -200               0
1.22368              -0.05890119       -13.08188        -61.60772        121.2089             -200               0             -200               0
1.23026                -0.060754       -13.19262        -61.04692        116.7383             -200               0             -200               0
1.23684              -0.06261619       -13.30419        -60.52288        112.1833             -200               0             -200               0
1.24342              -0.06448724       -13.41663        -60.03315        107.5633             -200               0             -200               0
1.25                 -0.06636483          -13.53        -59.57555        102.8949             -200               0             -200               0
1.25658              -0.06825016       -13.64436        -59.14812        98.19177             -200               0             -200               0
1.26316              -0.07014384       -13.75979        -58.74916        93.46571             -200               0             -200               0
1.26974              -0.07204914       -13.87634        -58.37712        88.72706             -200               0             -200               0
1.27632              -0.07396977       -13.99407        -58.03064        83.98498             -200               0             -200               0
1.28289              -0.07591118       -14.11304        -57.70848        79.24779             -200               0             -200               0
1.28947              -0.07787821        -14.2333        -57.40953        74.52311             -200               0             -200               0
1.29605               -0.0798782       -14.35491        -57.13277        69.81809             -200               0             -200               0
1.30263              -0.08192068       -14.47791        -56.87727        65.13957             -200               0             -200               0
1.30921              -0.08401163       -14.60233        -56.64215        60.49412             -200               0             -200               0
1.31579              -0.08616072        -14.7282        -56.42659        55.88822             -200               0             -200               0
1.32237              -0.08837658       -14.85555         -56.2298        51.32832             -200               0             -200               0
1.32895              -0.09066876       -14.98438          -56.051        46.82087             -200               0             -200               0
1.33553               -0.0930456       -15.11472        -55.88941        42.37242             -200               0             -200               0
1.34211              -0.09551565       -15.24654        -55.74425        37.98961             -200               0             -200               0
1.34868              -0.09808677       -15.37986        -55.61469        33.67929             -200               0             -200               0
1.35526               -0.1007653       -15.51465        -55.49986        29.44844             -200               0             -200               0
1.36184               -0.1035598       -15.65089        -55.39881        25.30418             -200               0             -200               0
1.36842               -0.1064734       -15.78857         -55.3105        21.25379             -200               0             -200               0
1.375                 -0.1095097       -15.92765        -55.23377        17.30463             -200               0             -200               0
1.38158               -0.1126734       -16.06811        -55.16734        13.46401             -200               0             -200               0
1.38816               -0.1159647       -16.20993        -55.10974        9.739119             -200               0             -200               0
1.39474               -0.1193841       -16.35308        -55.05933        6.136817             -200               0             -200               0
1.40132               -0.1229315       -16.49753        -55.01427        2.663409             -200               0             -200               0
1.40789                -0.126603       -16.64328         -54.9725      -0.6756493             -200               0             -200               0
1.41447               -0.1303957        -16.7903        -54.93173       -3.876101             -200               0             -200               0
1.42105               -0.1343063       -16.93861        -54.88945       -6.935295             -200               0             -200               0
1.42763               -0.1383301        -17.0882        -54.84294       -9.852632             -200               0             -200               0
1.43421               -0.1424613       -17.23908        -54.78935       -12.63003             -200               0             -200               0
1.44079                -0.146694       -17.39129        -54.72572       -15.27234             -200               0             -200               0
1.44737               -0.1510225       -17.54485        -54.64909       -17.78776             -200               0             -200               0
1.45395               -0.1554417       -17.69981        -54.55659       -20.18799             -200               0             -200               0
1.46053               -0.1599459       -17.85623        -54.44563       -22.48829             -200               0             -200               0
1.46711               -0.1645317       -18.01418        -54.31393       -24.70727             -200               0             -200               0
1.47368               -0.1691934       -18.17373        -54.15975       -26.86633             -200               0             -200               0
1.48026               -0.1739316       -18.33497        -53.98194       -28.98895             -200               0             -200               0
1.48684               -0.1787428       -18.49798        -53.78003       -31.09972             -200               0             -200               0
1.49342               -0.1836272       -18.66288        -53.55424       -33.22321             -200               0             -200               0
1.5                   -0.1885904       -18.82976        -53.30549       -35.38291             -200               0             -200               0
1.50658               -0.1936341       -18.99874        -53.03527       -37.60025             -200               0             -200               0
1.51316               -0.1987629       -19.16991         -52.7456       -39.89385             -200               0             -200               0
1.51974               -0.2039884        -19.3434        -52.43885       -42.27896             -200               0             -200               0
1.52632               -0.2093161        -19.5193        -52.11763       -44.76728             -200               0             -200               0
1.53289               -0.2147606       -19.69772        -51.78465       -47.36692             -200               0             -200               0
1.53947               -0.2203344       -19.87877        -51.44261       -50.08269             -200               0             -200               0
1.54605               -0.2260502       -20.06252        -51.09411       -52.91639             -200               0             -200               0
1.55263               -0.2319264       -20.24907        -50.74159       -55.86727             -200               0             -200               0
1.55921               -0.2379798       -20.43848        -50.38727       -58.93251             -200               0             -200               0
1.56579               -0.2442268       -20.63082        -50.03313       -62.10767             -200               0             -200               0
1.57237               -0.2506875       -20.82614        -49.68091       -65.38707             -200               0             -200               0
1.57895               -0.2573798       -21.02448        -49.33211       -68.76416             -200               0             -200               0
1.58553                -0.264323       -21.22586        -48.98802       -72.23188             -200               0             -200               0
1.59211               -0.2715357       -21.43032        -48.64968       -75.78278             -200               0             -200               0
1.59868               -0.2790357       -21.63784        -48.31798       -79.40932             -200               0             -200               0
1.60526               -0.2868406       -21.84844        -47.99361       -83.10398             -200               0             -200               0
1.61184               -0.2949657       -22.06209        -47.67712        -86.8593             -200               0             -200               0
1.61842               -0.3034263        -22.2788        -47.36891       -90.66806             -200               0             -200               0
1.625                 -0.3122353       -22.49852        -47.06929       -94.52323             -200               0             -200               0
1.63158               -0.3214052       -22.72124        -46.77844       -98.41806             -200               0             -200               0
1.63816               -0.3309451       -22.94694        -46.49647       -102.3461             -200               0             -200               0
1.64474               -0.3408634       -23.17558        -46.22338       -106.3011             -200               0             -200               0
1.65132               -0.3511673       -23.40716        -45.95914       -110.2771             -200               0             -200               0
1.65789               -0.3618609       -23.64165        -45.70362       -114.2686             -200               0             -200               0
1.66447               -0.3729485       -23.87906        -45.45666       -118.2701             -200               0             -200               0
1.67105                -0.384432       -24.11938        -45.21801       -122.2766             -200               0             -200               0
1.67763               -0.3963125       -24.36263        -44.98741       -126.2832             -200               0             -200               0
1.68421               -0.4085898       -24.60884        -44.76453       -130.2852             -200               0             -200               0
1.69079               -0.4212641       -24.85807        -44.54899       -134.2783             -200               0             -200               0
1.69737               -0.4343354       -25.11036        -44.34039       -138.2584             -200               0             -200               0
1.70395               -0.4478032       -25.36581        -44.13825       -142.2217             -200               0             -200               0
1.71053               -0.4616681        -25.6245        -43.94208       -146.1647             -200               0             -200               0
1.71711               -0.4759313       -25.88656        -43.75133        -150.084             -200               0             -200               0
1.72368               -0.4905966        -26.1521        -43.56542       -153.9766             -200               0             -200               0
1.73026               -0.5056684       -26.42129         -43.3837       -157.8401             -200               0             -200               0
1.73684               -0.5211533       -26.69429        -43.20553        -161.672             -200               0             -200               0
1.74342               -0.5370614       -26.97126        -43.03018       -165.4706             -200               0             -200               0
1.75                  -0.5534036       -27.25241        -42.85694       -169.2345             -200               0             -200               0
1.75658               -0.5701978       -27.53793        -42.68502       -172.9627             -200               0             -200               0
1.76316               -0.5874621       -27.82803        -42.51366       -176.6548             -200               0             -200               0
1.76974               -0.6052181       -28.12292        -42.34204        179.6891             -200               0             -200               0
1.77632               -0.6234929       -28.42282        -42.16936        176.0682             -200               0             -200               0
1.78289               -0.6423155       -28.72794        -41.99481        172.4812             -200               0             -200               0
1.78947               -0.6617198        -29.0385        -41.81762        168.9262             -200               0             -200               0
1.79605               -0.6817433        -29.3547        -41.63702        165.4005             -200               0             -200               0
1.80263               -0.7024253       -29.67676         -41.4523         161.901             -200               0             -200               0
1.80921               -0.7238117       -30.00486         -41.2628        158.4239             -200               0             -200               0
1.81579               -0.7459471       -30.33919        -41.06793        154.9649             -200               0             -200               0
1.82237               -0.7688838       -30.67991        -40.86718        151.5191             -200               0             -200               0
1.82895                -0.792673       -31.02718        -40.66015        148.0812             -200               0             -200               0
1.83553               -0.8173701       -31.38114        -40.44652        144.6458             -200               0             -200               0
1.84211               -0.8430333       -31.74193        -40.22608        141.2071             -200               0             -200               0
1.84868               -0.8697209       -32.10965        -39.99877        137.7591             -200               0             -200               0
1.85526               -0.8974926        -32.4844        -39.76459        134.2961             -200               0             -200               0
1.86184               -0.9264104       -32.86626        -39.52368        130.8123             -200               0             -200               0
1.86842               -0.9565385       -33.25531        -39.27629        127.3021             -200               0             -200               0
1.875                 -0.9879383       -33.65161        -39.02276        123.7605             -200               0             -200               0
1.88158                -1.020675        -34.0552         -38.7635        120.1826             -200               0             -200               0
1.88816                -1.054815       -34.46613        -38.49902        116.5642             -200               0             -200               0
1.89474                -1.090422       -34.88443        -38.22986        112.9013             -200               0             -200               0
1.90132                -1.127565       -35.31015        -37.95664        109.1909             -200               0             -200               0
1.90789                -1.166309        -35.7433        -37.67998        105.4301             -200               0             -200               0
1.91447                -1.206724       -36.18393        -37.40054        101.6168             -200               0             -200               0
1.92105                -1.248881       -36.63208        -37.11898        97.74945             -200               0             -200               0
1.92763                -1.292851       -37.08777        -36.83596         93.8269             -200               0             -200               0
1.93421                -1.338708       -37.55108        -36.55212        89.84853             -200               0             -200               0
1.94079                 -1.38653       -38.02203        -36.26809        85.81413             -200               0             -200               0
1.94737                -1.436399        -38.5007        -35.98447        81.72387             -200               0             -200               0
1.95395                -1.488399       -38.98718        -35.70183        77.57829             -200               0             -200               0
1.96053                -1.542618       -39.48151        -35.42071        73.37818             -200               0             -200               0
1.96711                -1.599154       -39.98381         -35.1416        69.12461             -200               0             -200               0
1.97368                -1.658107       -40.49416        -34.86498        64.81883             -200               0             -200               0
1.98026                -1.719586       -41.01266        -34.59125        60.46228             -200               0             -200               0
1.98684                -1.783708       -41.53941        -34.32083        56.05652             -200               0             -200               0
1.99342                -1.850599       -42.07449        -34.05405        51.60321             -200               0             -200               0
2                      -1.920393       -42.61802        -33.79125        47.10409             -200               0             -200               0
2.00658                -1.993236       -43.17005         -33.5327        42.56092             -200               0             -200               0
2.01316                -2.069283       -43.73065        -33.27868        37.97552             -200               0             -200               0
2.01974                -2.148703       -44.29987         -33.0294        33.34972             -200               0             -200               0
2.02632                -2.231676        -44.8777        -32.78507        28.68532             -200               0             -200               0
2.03289                -2.318395       -45.46412        -32.54588        23.98412             -200               0             -200               0
2.03947                -2.409067       -46.05906        -32.31198         19.2479             -200               0             -200               0
2.04605                -2.503911        -46.6624         -32.0835        14.47838             -200               0             -200               0
2.05263                -2.603167       -47.27396        -31.86057        9.677281             -200               0             -200               0
2.05921                 -2.70708       -47.89348         -31.6433        4.846243             -200               0             -200               0
2.06579                -2.815921       -48.52062        -31.43176     -0.01312028             -200               0             -200               0
2.07237                -2.929968       -49.15498        -31.22604       -4.899246             -200               0             -200               0
2.07895                -3.049521       -49.79602        -31.02619        -9.81063             -200               0             -200               0
2.08553                -3.174896       -50.44312        -30.83228        -14.7458             -200               0             -200               0
2.09211                -3.306423       -51.09554        -30.64434       -19.70336             -200               0             -200               0
2.09868                -3.444452       -51.75238        -30.46241       -24.68194             -200               0             -200               0
2.10526                -3.589352       -52.41263        -30.28652       -29.68022             -200               0             -200               0
2.11184                -3.741509       -53.07506        -30.11669       -34.69694             -200               0             -200               0
2.11842                -3.901328       -53.73834        -29.95294       -39.73088             -200               0             -200               0
2.125                  -4.069238       -54.40089        -29.79527       -44.78084             -200               0             -200               0
2.13158                -4.245684       -55.06093         -29.6437        -49.8457             -200               0             -200               0
2.13816                -4.431138       -55.71646        -29.49823       -54.92435             -200               0             -200               0
2.14474                -4.626092       -56.36519        -29.35886       -60.01572             -200               0             -200               0
2.15132                -4.831064       -57.00455        -29.22559       -65.11879             -200               0             -200               0
2.15789                  -5.0466       -57.63166        -29.09842       -70.23256             -200               0             -200               0
2.16447                -5.273272       -58.24324        -28.97733       -75.35605             -200               0             -200               0
2.17105                -5.511682       -58.83563        -28.86232       -80.48833             -200               0             -200               0
2.17763                -5.762465       -59.40464        -28.75338       -85.62847             -200               0             -200               0
2.18421                -6.026289       -59.94562        -28.65051        -90.7756             -200               0             -200               0
2.19079                -6.303854       -60.45321        -28.55368       -95.92884             -200               0             -200               0
2.19737                -6.595902       -60.92139         -28.4629       -101.0873             -200               0             -200               0
2.20395                -6.903206       -61.34325        -28.37815       -106.2503             -200               0             -200               0
2.21053                -7.226578       -61.71092        -28.29941       -111.4168             -200               0             -200               0
2.21711                -7.566867       -62.01535        -28.22668       -116.5861             -200               0             -200               0
2.22368                -7.924947        -62.2461        -28.15994       -121.7575             -200               0             -200               0
2.23026                -8.301712       -62.39108        -28.09919         -126.93             -200               0             -200               0
2.23684                -8.698061       -62.43624         -28.0444       -132.1031             -200               0             -200               0
2.24342                -9.114873       -62.36517        -27.99557       -137.2758             -200               0             -200               0
2.25                   -9.552964       -62.15863        -27.95269       -142.4474             -200               0             -200               0
2.25658                -10.01303       -61.79398        -27.91574       -147.6172             -200               0             -200               0
2.26316                -10.49557       -61.24456        -27.88471       -152.7844             -200               0             -200               0
2.26974                -11.00071       -60.47888        -27.85959       -157.9483             -200               0             -200               0
2.27632                -11.52806        -59.4599        -27.84037        -163.108             -200               0             -200               0
2.28289                -12.07641       -58.14426        -27.82703       -168.2629             -200               0             -200               0
2.28947                -12.64329       -56.48176        -27.81957       -173.4121             -200               0             -200               0