! TOUCHSTONE file generated by CST MICROWAVE STUDIO
! Date and time: Tue Mar 18 20:31:47 2025
! Project name: hairline.cst
! Parameters = {B=12.5; D=160; F=15; Feed=2.85625; Fracture=2; L=100; M=30; R=0.384908; S=1.5; Theta=180; length=57.125; wave=114.25}
! Header version: 2024
! Port assignment regex: !\s*Touchstone port\s*([0-9]+)\s*=\s*(CST MWS port|CST DES external port|CST DES block port)\s*(.+)\s* \(\"(.*)\"\)(\s*mode\s*([0-9]+))?.*
! Touchstone port assignment:
! Touchstone port 1 = CST MWS port 1 ("")
! Touchstone port 2 = CST MWS port 2 ("")
# GHz S DB R 50
1                    -0.02143307       -9.976642        -66.34269         174.721             -200               0             -200               0
1.00658              -0.02207322       -10.06374        -66.37759        169.0181             -200               0             -200               0
1.01316              -0.02269783       -10.15144        -66.44857        163.4228             -200               0             -200               0
1.01974               -0.0233094        -10.2398        -66.55711        157.9454             -200               0             -200               0
1.02632              -0.02390996       -10.32885        -66.70498        152.5993             -200               0             -200               0
1.03289              -0.02450413       -10.41864        -66.89429        147.4018             -200               0             -200               0
1.03947              -0.02509467        -10.5092        -67.12749        142.3748             -200               0             -200               0
1.04605              -0.02568785       -10.60058        -67.40741        137.5468             -200               0             -200               0
1.05263              -0.02628922       -10.69279        -67.73725        132.9545             -200               0             -200               0
1.05921              -0.02690324       -10.78587        -68.12048        128.6459             -200               0             -200               0
1.06579              -0.02753938       -10.87984        -68.56073         124.684             -200               0             -200               0
1.07237              -0.02820205       -10.97469        -69.06135        121.1526             -200               0             -200               0
1.07895               -0.0288984       -11.07044        -69.62468        118.1634             -200               0             -200               0
1.08553               -0.0296352       -11.16709        -70.25047         115.865             -200               0             -200               0
1.09211              -0.03041847       -11.26463        -70.93297        114.4538             -200               0             -200               0
1.09868              -0.03125487       -11.36305        -71.65561        114.1791             -200               0             -200               0
1.10526              -0.03214862       -11.46232         -72.3823        115.3306             -200               0             -200               0
1.11184              -0.03310519       -11.56242        -73.04593         118.174             -200               0             -200               0
1.11842              -0.03412586       -11.66334        -73.54148        122.7929             -200               0             -200               0
1.125                -0.03521536       -11.76503        -73.74255        128.8497             -200               0             -200               0
1.13158              -0.03637465       -11.86747        -73.55677        135.4678             -200               0             -200               0
1.13816              -0.03760474       -11.97063        -72.98668        141.5153             -200               0             -200               0
1.14474              -0.03890468       -12.07448        -72.12777        146.1392             -200               0             -200               0
1.15132              -0.04027329       -12.17898        -71.10617        149.0277             -200               0             -200               0
1.15789              -0.04170842       -12.28412        -70.02496        150.2791             -200               0             -200               0
1.16447              -0.04320608       -12.38987        -68.94923        150.1635             -200               0             -200               0
1.17105              -0.04476278       -12.49621        -67.91366        148.9703             -200               0             -200               0
1.17763              -0.04637369       -12.60314        -66.93389         146.947             -200               0             -200               0
1.18421              -0.04803378       -12.71065        -66.01506        144.2883             -200               0             -200               0
1.19079              -0.04973672       -12.81874        -65.15699         141.142             -200               0             -200               0
1.19737              -0.05147798       -12.92743          -64.357        137.6196             -200               0             -200               0
1.20395              -0.05325081       -13.03672        -63.61143         133.805             -200               0             -200               0
1.21053              -0.05504993       -13.14666        -62.91637        129.7621             -200               0             -200               0
1.21711              -0.05686959       -13.25726        -62.26802        125.5401             -200               0             -200               0
1.22368              -0.05870607       -13.36858        -61.66287        121.1775             -200               0             -200               0
1.23026              -0.06055516       -13.48065        -61.09775        116.7047             -200               0             -200               0
1.23684               -0.0624143       -13.59353         -60.5698         112.146             -200               0             -200               0
1.24342              -0.06428025       -13.70727        -60.07651        107.5215             -200               0             -200               0
1.25                 -0.06615273       -13.82194        -59.61564        102.8476             -200               0             -200               0
1.25658              -0.06803186        -13.9376        -59.18521        98.13828             -200               0             -200               0
1.26316              -0.06991929        -14.0543        -58.78346        93.40544             -200               0             -200               0
1.26974              -0.07181767       -14.17212        -58.40883        88.65948             -200               0             -200               0
1.27632               -0.0737296       -14.29111        -58.05993        83.90959             -200               0             -200               0
1.28289              -0.07566192       -14.41133         -57.7355        79.16411             -200               0             -200               0
1.28947              -0.07761907       -14.53284        -57.43442        74.43066             -200               0             -200               0
1.29605              -0.07960876       -14.65569        -57.15565         69.7164             -200               0             -200               0
1.30263              -0.08163794       -14.77992        -56.89824        65.02814             -200               0             -200               0
1.30921              -0.08371566       -14.90556        -56.66133        60.37244             -200               0             -200               0
1.31579              -0.08585046       -15.03266        -56.44407        55.75576             -200               0             -200               0
1.32237              -0.08805112       -15.16122        -56.24567        51.18449             -200               0             -200               0
1.32895              -0.09032695       -15.29126        -56.06536        46.66505             -200               0             -200               0
1.33553              -0.09268671        -15.4228        -55.90237        42.20396             -200               0             -200               0
1.34211              -0.09513887       -15.55583         -55.7559        37.80782             -200               0             -200               0
1.34868              -0.09769202       -15.69034        -55.62515        33.48343             -200               0             -200               0
1.35526               -0.1003526       -15.82632        -55.50924        29.23772             -200               0             -200               0
1.36184               -0.1031266       -15.96375        -55.40725         25.0778             -200               0             -200               0
1.36842               -0.1060201       -16.10261        -55.31814        21.01093             -200               0             -200               0
1.375                 -0.1090366       -16.24287        -55.24079        17.04442             -200               0             -200               0
1.38158               -0.1121796        -16.3845        -55.17392        13.18562             -200               0             -200               0
1.38816               -0.1154504       -16.52749         -55.1161        9.441749             -200               0             -200               0
1.39474               -0.1188486       -16.67179        -55.06573        5.819724             -200               0             -200               0
1.40132                -0.122375        -16.8174        -55.02098        2.325957             -200               0             -200               0
1.40789               -0.1260256       -16.96429        -54.97982       -1.033944             -200               0             -200               0
1.41447               -0.1297984       -17.11245           -54.94       -4.255513             -200               0             -200               0
1.42105               -0.1336885       -17.26188        -54.89904       -7.335823             -200               0             -200               0
1.42763               -0.1376919       -17.41258        -54.85426       -10.27393             -200               0             -200               0
1.43421               -0.1418023       -17.56456         -54.8028       -13.07136             -200               0             -200               0
1.44079               -0.1460153       -17.71785        -54.74172       -15.73249             -200               0             -200               0
1.44737                -0.150324       -17.87249        -54.66804       -18.26502             -200               0             -200               0
1.45395               -0.1547228        -18.0285        -54.57888       -20.68012             -200               0             -200               0
1.46053               -0.1592064       -18.18596        -54.47156       -22.99257             -200               0             -200               0
1.46711               -0.1637703       -18.34492        -54.34378       -25.22052             -200               0             -200               0
1.47368               -0.1684114       -18.50547        -54.19369       -27.38505             -200               0             -200               0
1.48026               -0.1731264       -18.66768        -54.02005       -29.50943             -200               0             -200               0
1.48684               -0.1779146       -18.83165        -53.82228        -31.6182             -200               0             -200               0
1.49342               -0.1827764       -18.99748         -53.6005       -33.73605             -200               0             -200               0
1.5                   -0.1877136       -19.16527        -53.35552       -35.88674             -200               0             -200               0
1.50658               -0.1927303       -19.33513        -53.08878       -38.09211             -200               0             -200               0
1.51316               -0.1978316       -19.50716        -52.80221       -40.37127             -200               0             -200               0
1.51974               -0.2030253       -19.68149        -52.49815       -42.74002             -200               0             -200               0
1.52632               -0.2083216        -19.8582        -52.17919       -45.21059             -200               0             -200               0
1.53289               -0.2137318       -20.03742        -51.84804       -47.79166             -200               0             -200               0
1.53947               -0.2192679       -20.21923        -51.50741       -50.48849             -200               0             -200               0
1.54605               -0.2249443       -20.40373        -51.15993        -53.3033             -200               0             -200               0
1.55263               -0.2307778         -20.591        -50.80805       -56.23568             -200               0             -200               0
1.55921               -0.2367852       -20.78111        -50.45404        -59.2831             -200               0             -200               0
1.56579               -0.2429845       -20.97414        -50.09992        -62.4413             -200               0             -200               0
1.57237               -0.2493931       -21.17011        -49.74747       -65.70476             -200               0             -200               0
1.57895               -0.2560303       -21.36909        -49.39823       -69.06704             -200               0             -200               0
1.58553               -0.2629164        -21.5711        -49.05351       -72.52112             -200               0             -200               0
1.59211               -0.2700683       -21.77616        -48.71439        -76.0596             -200               0             -200               0
1.59868               -0.2775043       -21.98427        -48.38178       -79.67494             -200               0             -200               0
1.60526                -0.285242       -22.19544         -48.0564       -83.35959             -200               0             -200               0
1.61184               -0.2932964       -22.40964        -47.73882       -87.10609             -200               0             -200               0
1.61842               -0.3016842       -22.62688        -47.42947       -90.90717             -200               0             -200               0
1.625                 -0.3104176       -22.84712        -47.12866       -94.75579             -200               0             -200               0
1.63158               -0.3195093       -23.07034        -46.83659       -98.64514             -200               0             -200               0
1.63816                -0.328968       -23.29651        -46.55338       -102.5687             -200               0             -200               0
1.64474               -0.3388031       -23.52561        -46.27906       -106.5203             -200               0             -200               0
1.65132               -0.3490199       -23.75762        -46.01358       -110.4939             -200               0             -200               0
1.65789               -0.3596265       -23.99252        -45.75684       -114.4839             -200               0             -200               0
1.66447               -0.3706224       -24.23031        -45.50868       -118.4848             -200               0             -200               0
1.67105               -0.3820132       -24.47098        -45.26888       -122.4916             -200               0             -200               0
1.67763               -0.3937982       -24.71455        -45.03717       -126.4992             -200               0             -200               0
1.68421               -0.4059776       -24.96106        -44.81322       -130.5032             -200               0             -200               0
1.69079               -0.4185503       -25.21054        -44.59668       -134.4991             -200               0             -200               0
1.69737               -0.4315178       -25.46305        -44.38714       -138.4827             -200               0             -200               0
1.70395               -0.4448789       -25.71867        -44.18416       -142.4503             -200               0             -200               0
1.71053               -0.4586337       -25.97749        -43.98722       -146.3981             -200               0             -200               0
1.71711               -0.4727835       -26.23963         -43.7958        -150.323             -200               0             -200               0
1.72368               -0.4873305       -26.50521        -43.60932       -154.2219             -200               0             -200               0
1.73026               -0.5022796       -26.77438        -43.42716       -158.0921             -200               0             -200               0
1.73684               -0.5176364        -27.0473        -43.24867       -161.9313             -200               0             -200               0
1.74342               -0.5334114       -27.32415        -43.07314       -165.7376             -200               0             -200               0
1.75                  -0.5496155        -27.6051        -42.89986       -169.5095             -200               0             -200               0
1.75658               -0.5662633       -27.89037        -42.72807        -173.246             -200               0             -200               0
1.76316               -0.5833737       -28.18016        -42.55698       -176.9465             -200               0             -200               0
1.76974               -0.6009678       -28.47466        -42.38581        179.3888             -200               0             -200               0
1.77632               -0.6190727       -28.77412        -42.21376        175.7595             -200               0             -200               0
1.78289               -0.6377154       -29.07873        -42.04001        172.1643             -200               0             -200               0
1.78947               -0.6569293       -29.38872        -41.86379        168.6013             -200               0             -200               0
1.79605                -0.676751       -29.70429        -41.68434        165.0683             -200               0             -200               0
1.80263               -0.6972203       -30.02563        -41.50093         161.562             -200               0             -200               0
1.80921               -0.7183812       -30.35296         -41.3129        158.0788             -200               0             -200               0
1.81579               -0.7402788       -30.68644        -41.11965        154.6146             -200               0             -200               0
1.82237               -0.7629637       -31.02625        -40.92065        151.1646             -200               0             -200               0
1.82895               -0.7864877       -31.37255        -40.71548        147.7238             -200               0             -200               0
1.83553               -0.8109051       -31.72548         -40.5038        144.2865             -200               0             -200               0
1.84211                -0.836272       -32.08516        -40.28539        140.8473             -200               0             -200               0
1.84868               -0.8626475       -32.45171        -40.06014        137.4001             -200               0             -200               0
1.85526               -0.8900916       -32.82522        -39.82805        133.9393             -200               0             -200               0
1.86184               -0.9186647       -33.20579        -39.58923         130.459             -200               0             -200               0
1.86842               -0.9484291       -33.59347        -39.34391        126.9537             -200               0             -200               0
1.875                 -0.9794478       -33.98833        -39.09238        123.4182             -200               0             -200               0
1.88158                -1.011784       -34.39041        -38.83506        119.8477             -200               0             -200               0
1.88816                -1.045504       -34.79976        -38.57243        116.2377             -200               0             -200               0
1.89474                -1.080671        -35.2164        -38.30502        112.5844             -200               0             -200               0
1.90132                -1.117351       -35.64039        -38.03342        108.8844             -200               0             -200               0
1.90789                -1.155611       -36.07172        -37.75825        105.1349             -200               0             -200               0
1.91447                -1.195518       -36.51046        -37.48017        101.3337             -200               0             -200               0
1.92105                -1.237142       -36.95661        -37.19983        97.47895             -200               0             -200               0
1.92763                -1.280553       -37.41023        -36.91788         93.5695             -200               0             -200               0
1.93421                -1.325824       -37.87135        -36.63497        89.60462             -200               0             -200               0
1.94079                 -1.37303       -38.34003        -36.35173        85.58398             -200               0             -200               0
1.94737                -1.422252       -38.81631        -36.06876         81.5077             -200               0             -200               0
1.95395                 -1.47357       -39.30028        -35.78663         77.3762             -200               0             -200               0
1.96053                -1.527074       -39.79201        -35.50589        73.19022             -200               0             -200               0
1.96711                -1.582854       -40.29158        -35.22703        68.95076             -200               0             -200               0
1.97368                -1.641011       -40.79908        -34.95054        64.65901             -200               0             -200               0
1.98026                 -1.70165        -41.3146        -34.67684        60.31638             -200               0             -200               0
1.98684                -1.764883       -41.83825        -34.40633        55.92437             -200               0             -200               0
1.99342                -1.830834       -42.37012        -34.13937        51.48461             -200               0             -200               0
2                      -1.899633       -42.91029        -33.87629        46.99882             -200               0             -200               0
2.00658                -1.971421       -43.45885        -33.61738        42.46875             -200               0             -200               0
2.01316                 -2.04635       -44.01586        -33.36292         37.8962             -200               0             -200               0
2.01974                -2.124583       -44.58137        -33.11312        33.28296             -200               0             -200               0
2.02632                -2.206295       -45.15539        -32.86821        28.63085             -200               0             -200               0
2.03289                -2.291676        -45.7379        -32.62837        23.94167             -200               0             -200               0
2.03947                -2.380925       -46.32884        -32.39375        19.21717             -200               0             -200               0
2.04605                -2.474258       -46.92811        -32.16451        14.45909             -200               0             -200               0
2.05263                -2.571905       -47.53553        -31.94076        9.669143             -200               0             -200               0
2.05921                 -2.67411       -48.15086        -31.72262        4.848983             -200               0             -200               0
2.06579                -2.781131        -48.7738        -31.51017    0.0002181503             -200               0             -200               0
2.07237                -2.893245       -49.40396         -31.3035       -4.875584             -200               0             -200               0
2.07895                -3.010742       -50.04082        -31.10266       -9.776908             -200               0             -200               0
2.08553                 -3.13393       -50.68379        -30.90772       -14.70229             -200               0             -200               0
2.09211                -3.263131       -51.33217        -30.71872        -19.6503             -200               0             -200               0
2.09868                -3.398688       -51.98509         -30.5357       -24.61959             -200               0             -200               0
2.10526                 -3.54096       -52.64156        -30.35868       -29.60882             -200               0             -200               0
2.11184                -3.690323       -53.30045        -30.18769       -34.61673             -200               0             -200               0
2.11842                -3.847174       -53.96042        -30.02276       -39.64208             -200               0             -200               0
2.125                  -4.011925       -54.61997        -29.86388       -44.68369             -200               0             -200               0
2.13158                -4.185016       -55.27739        -29.71107       -49.74041             -200               0             -200               0
2.13816                  -4.3669       -55.93072        -29.56434       -54.81114             -200               0             -200               0
2.14474                -4.558061       -56.57778        -29.42369        -59.8948             -200               0             -200               0
2.15132                -4.758997       -57.21608         -29.2891       -64.99035             -200               0             -200               0
2.15789                -4.970239       -57.84282        -29.16059       -70.09681             -200               0             -200               0
2.16447                -5.192339       -58.45487        -29.03814       -75.21319             -200               0             -200               0
2.17105                 -5.42588       -59.04868        -28.92175       -80.33854             -200               0             -200               0
2.17763                -5.671475       -59.62024        -28.81141       -85.47196             -200               0             -200               0
2.18421                -5.929766       -60.16506        -28.70711       -90.61254             -200               0             -200               0
2.19079                -6.201428       -60.67802        -28.60884       -95.75942             -200               0             -200               0
2.19737                -6.487171       -61.15334        -28.51659       -100.9117             -200               0             -200               0
2.20395                -6.787739       -61.58444        -28.43034       -106.0687             -200               0             -200               0
2.21053                -7.103909       -61.96381        -28.35009       -111.2294             -200               0             -200               0
2.21711                -7.436488       -62.28283        -28.27582       -116.3931             -200               0             -200               0
2.22368                -7.786314       -62.53162        -28.20752        -121.559             -200               0             -200               0
2.23026                 -8.15424       -62.69876        -28.14517       -126.7263             -200               0             -200               0
2.23684                -8.541125       -62.77101        -28.08878       -131.8942             -200               0             -200               0
2.24342                -8.947809       -62.73296        -28.03831       -137.0621             -200               0             -200               0
2.25                   -9.375081       -62.56657        -27.99377        -142.229             -200               0             -200               0
2.25658                -9.823623       -62.25076        -27.95514       -147.3943             -200               0             -200               0
2.26316                -10.29394       -61.76072         -27.9224       -152.5572             -200               0             -200               0
2.26974                -10.78622       -61.06727        -27.89555       -157.7169             -200               0             -200               0
2.27632                -11.30021       -60.13616        -27.87458       -162.8728             -200               0             -200               0
2.28289                -11.83492       -58.92734        -27.85946       -168.0239             -200               0             -200               0
2.28947                 -12.3883       -57.39447        -27.85019       -173.1697             -200               0             -200               0