! TOUCHSTONE file generated by CST MICROWAVE STUDIO
! Date and time: Tue Mar 18 20:31:44 2025
! Project name: hairline.cst
! Parameters = {B=12.5; D=160; F=25; Feed=2.85625; Fracture=2; L=100; M=30; R=0.384908; S=1.5; Theta=90; length=57.125; wave=114.25}
! Header version: 2024
! Port assignment regex: !\s*Touchstone port\s*([0-9]+)\s*=\s*(CST MWS port|CST DES external port|CST DES block port)\s*(.+)\s* \(\"(.*)\"\)(\s*mode\s*([0-9]+))?.*
! Touchstone port assignment:
! Touchstone port 1 = CST MWS port 1 ("")
! Touchstone port 2 = CST MWS port 2 ("")
# GHz S DB R 50
1                    -0.02141097       -10.00573        -66.10649        161.4506             -200               0             -200               0
1.0066               -0.02196811       -10.09309        -66.15685        155.6559             -200               0             -200               0
1.0132               -0.02249538       -10.18118        -66.24197          149.98             -200               0             -200               0
1.0198                -0.0229941       -10.27005        -66.36316        144.4343             -200               0             -200               0
1.0264               -0.02347154       -10.35976        -66.52198        139.0336             -200               0             -200               0
1.033                 -0.0239345       -10.45037        -66.72018        133.7968             -200               0             -200               0
1.0396                -0.0243905       -10.54193        -66.95979        128.7477             -200               0             -200               0
1.0462                -0.0248478       -10.63447        -67.24298        123.9167             -200               0             -200               0
1.05281               -0.0253179       -10.72803        -67.57209        119.3427             -200               0             -200               0
1.05941              -0.02580957       -10.82264        -67.94938        115.0755             -200               0             -200               0
1.06601              -0.02633392       -10.91829        -68.37678        111.1794             -200               0             -200               0
1.07261              -0.02690076       -11.01499        -68.85533        107.7374             -200               0             -200               0
1.07921              -0.02752072       -11.11274        -69.38416        104.8562             -200               0             -200               0
1.08581              -0.02820269       -11.21151        -69.95878        102.6717             -200               0             -200               0
1.09241              -0.02895588       -11.31127        -70.56813        101.3514             -200               0             -200               0
1.09901              -0.02978705       -11.41199        -71.19015        101.0885             -200               0             -200               0
1.10561               -0.0307043       -11.51362         -71.7858        102.0749             -200               0             -200               0
1.11221              -0.03171127       -11.61612         -72.2938        104.4334             -200               0             -200               0
1.11881              -0.03281277       -11.71943        -72.63262        108.1022             -200               0             -200               0
1.12541              -0.03401057       -11.82349        -72.71908        112.7144             -200               0             -200               0
1.13201              -0.03530491       -11.92826         -72.5034        117.5988             -200               0             -200               0
1.13861              -0.03669461       -12.03367        -71.99713         121.988             -200               0             -200               0
1.14521              -0.03817659       -12.13969        -71.26618        125.3066             -200               0             -200               0
1.15182              -0.03974734       -12.24625        -70.39638        127.3067             -200               0             -200               0
1.15842              -0.04140053       -12.35332        -69.46293        128.0086             -200               0             -200               0
1.16502              -0.04313042       -12.46087         -68.5186        127.5713             -200               0             -200               0
1.17162              -0.04492807       -12.56887        -67.59546         126.193             -200               0             -200               0
1.17822              -0.04678574       -12.67731        -66.71081        124.0604             -200               0             -200               0
1.18482              -0.04869458        -12.7862        -65.87272        121.3306             -200               0             -200               0
1.19142              -0.05064455       -12.89554        -65.08391        118.1295             -200               0             -200               0
1.19802              -0.05262656       -13.00535        -64.34419        114.5563             -200               0             -200               0
1.20462              -0.05463271       -13.11566         -63.6519         110.688             -200               0             -200               0
1.21122              -0.05665381       -13.22651        -63.00468         106.585             -200               0             -200               0
1.21782              -0.05868255       -13.33797        -62.39996        102.2949             -200               0             -200               0
1.22442              -0.06071356       -13.45008        -61.83515         97.8553             -200               0             -200               0
1.23102              -0.06274113       -13.56293        -61.30783        93.29665             -200               0             -200               0
1.23762               -0.0647628       -13.67659        -60.81573        88.64353             -200               0             -200               0
1.24422              -0.06677552       -13.79114        -60.35682        83.91624             -200               0             -200               0
1.25083              -0.06878111       -13.90666        -59.92923        79.13172             -200               0             -200               0
1.25743              -0.07077997       -14.02324        -59.53131        74.30432             -200               0             -200               0
1.26403              -0.07277606       -14.14096        -59.16158        69.44639             -200               0             -200               0
1.27063               -0.0747754        -14.2599        -58.81871        64.56873             -200               0             -200               0
1.27723              -0.07678475       -14.38015        -58.50153        59.68093             -200               0             -200               0
1.28383              -0.07881172       -14.50176        -58.20898        54.79168             -200               0             -200               0
1.29043              -0.08086821        -14.6248         -57.9401        49.90897             -200               0             -200               0
1.29703              -0.08296327       -14.74933        -57.69404        45.04031             -200               0             -200               0
1.30363              -0.08510939       -14.87538        -57.47003        40.19287             -200               0             -200               0
1.31023              -0.08731843       -15.00298        -57.26736        35.37359             -200               0             -200               0
1.31683              -0.08960387       -15.13216        -57.08536        30.58936             -200               0             -200               0
1.32343              -0.09197746       -15.26291        -56.92344        25.84705             -200               0             -200               0
1.33003              -0.09445199       -15.39525        -56.78098        21.15365             -200               0             -200               0
1.33663              -0.09703889       -15.52914        -56.65742        16.51632             -200               0             -200               0
1.34323              -0.09974837       -15.66457        -56.55217        11.94251             -200               0             -200               0
1.34984                 -0.10259        -15.8015        -56.46462        7.439956             -200               0             -200               0
1.35644               -0.1055715       -15.93988        -56.39412        3.016805             -200               0             -200               0
1.36304                -0.108699       -16.07968        -56.33997       -1.318385             -200               0             -200               0
1.36964               -0.1119785       -16.22084        -56.30137       -5.556602             -200               0             -200               0
1.37624               -0.1154121       -16.36331         -56.2774       -9.688379             -200               0             -200               0
1.38284               -0.1190004       -16.50703        -56.26699       -13.70381             -200               0             -200               0
1.38944               -0.1227417       -16.65196        -56.26889       -17.59264             -200               0             -200               0
1.39604               -0.1266354       -16.79805        -56.28163       -21.34437             -200               0             -200               0
1.40264               -0.1306753       -16.94525        -56.30344       -24.94843             -200               0             -200               0
1.40924               -0.1348567       -17.09355        -56.33226       -28.39452             -200               0             -200               0
1.41584               -0.1391716       -17.24292        -56.36568       -31.67297             -200               0             -200               0
1.42244               -0.1436118       -17.39335        -56.40088       -34.77526             -200               0             -200               0
1.42904               -0.1481684       -17.54486        -56.43464       -37.69471             -200               0             -200               0
1.43564                -0.152833       -17.69744        -56.46335       -40.42722             -200               0             -200               0
1.44224               -0.1575954       -17.85115        -56.48302       -42.97226             -200               0             -200               0
1.44884                -0.162446       -18.00603         -56.4894       -45.33367             -200               0             -200               0
1.45545               -0.1673776       -18.16214        -56.47809       -47.52063             -200               0             -200               0
1.46205                -0.172381       -18.31955        -56.44473       -49.54825             -200               0             -200               0
1.46865               -0.1774512       -18.47835        -56.38529       -51.43787             -200               0             -200               0
1.47525               -0.1825837       -18.63865        -56.29627       -53.21679             -200               0             -200               0
1.48185               -0.1877743       -18.80055        -56.17501       -54.91743             -200               0             -200               0
1.48845               -0.1930241       -18.96416        -56.01989       -56.57581             -200               0             -200               0
1.49505               -0.1983344       -19.12962        -55.83048       -58.22965             -200               0             -200               0
1.50165               -0.2037077       -19.29703        -55.60756       -59.91613             -200               0             -200               0
1.50825               -0.2091521       -19.46654        -55.35302       -61.66981             -200               0             -200               0
1.51485               -0.2146755       -19.63825        -55.06973       -63.52082             -200               0             -200               0
1.52145               -0.2202894        -19.8123        -54.76126       -65.49371             -200               0             -200               0
1.52805               -0.2260062       -19.98878        -54.43159       -67.60683             -200               0             -200               0
1.53465               -0.2318422       -20.16781         -54.0849       -69.87233             -200               0             -200               0
1.54125               -0.2378143       -20.34948        -53.72532       -72.29667             -200               0             -200               0
1.54785               -0.2439399       -20.53386        -53.35674        -74.8813             -200               0             -200               0
1.55446               -0.2502392       -20.72103        -52.98274       -77.62369             -200               0             -200               0
1.56106               -0.2567337       -20.91102         -52.6065       -80.51813             -200               0             -200               0
1.56766               -0.2634412       -21.10388        -52.23075       -83.55669             -200               0             -200               0
1.57426               -0.2703852       -21.29964        -51.85783       -86.72987             -200               0             -200               0
1.58086               -0.2775826       -21.49829        -51.48968       -90.02727             -200               0             -200               0
1.58746               -0.2850561       -21.69982        -51.12789       -93.43804             -200               0             -200               0
1.59406                 -0.29282       -21.90422        -50.77369        -96.9512             -200               0             -200               0
1.60066               -0.3008938       -22.11146        -50.42809       -100.5559             -200               0             -200               0
1.60726               -0.3092899       -22.32148        -50.09182       -104.2417             -200               0             -200               0
1.61386               -0.3180206       -22.53425        -49.76542       -107.9984             -200               0             -200               0
1.62046               -0.3270974       -22.74971        -49.44926       -111.8165             -200               0             -200               0
1.62706               -0.3365271       -22.96781        -49.14356       -115.6868             -200               0             -200               0
1.63366               -0.3463152        -23.1885        -48.84842       -119.6008             -200               0             -200               0
1.64026               -0.3564633       -23.41173        -48.56383       -123.5502             -200               0             -200               0
1.64686               -0.3669726       -23.63746        -48.28969       -127.5276             -200               0             -200               0
1.65347               -0.3778409       -23.86566        -48.02581       -131.5257             -200               0             -200               0
1.66007               -0.3890646       -24.09633        -47.77197       -135.5377             -200               0             -200               0
1.66667               -0.4006378       -24.32947        -47.52784       -139.5573             -200               0             -200               0
1.67327               -0.4125536       -24.56509        -47.29306       -143.5786             -200               0             -200               0
1.67987               -0.4248038       -24.80323         -47.0672        -147.596             -200               0             -200               0
1.68647               -0.4373817       -25.04397        -46.84981       -151.6041             -200               0             -200               0
1.69307               -0.4502792       -25.28739        -46.64035       -155.5982             -200               0             -200               0
1.69967               -0.4634885       -25.53359        -46.43826       -159.5736             -200               0             -200               0
1.70627                -0.477003       -25.78272        -46.24291       -163.5262             -200               0             -200               0
1.71287               -0.4908198       -26.03492        -46.05365       -167.4521             -200               0             -200               0
1.71947               -0.5049364       -26.29038        -45.86976        -171.348             -200               0             -200               0
1.72607               -0.5193536       -26.54928        -45.69049       -175.2108             -200               0             -200               0
1.73267               -0.5340753       -26.81186        -45.51504        -179.038             -200               0             -200               0
1.73927               -0.5491085       -27.07833        -45.34256        177.1725             -200               0             -200               0
1.74587                -0.564466       -27.34894        -45.17219         173.422             -200               0             -200               0
1.75248               -0.5801617       -27.62394        -45.00302        169.7116             -200               0             -200               0
1.75908               -0.5962169       -27.90358        -44.83412        166.0415             -200               0             -200               0
1.76568               -0.6126539       -28.18813        -44.66456        162.4112             -200               0             -200               0
1.77228                -0.629504       -28.47784         -44.4934        158.8196             -200               0             -200               0
1.77888               -0.6468007       -28.77295        -44.31972        155.2648             -200               0             -200               0
1.78548                 -0.66458       -29.07373        -44.14262        151.7443             -200               0             -200               0
1.79208               -0.6828835       -29.38039        -43.96125        148.2546             -200               0             -200               0
1.79868               -0.7017567       -29.69315        -43.77483        144.7916             -200               0             -200               0
1.80528                -0.721247       -30.01221        -43.58264        141.3505             -200               0             -200               0
1.81188               -0.7414069       -30.33775        -43.38407        137.9261             -200               0             -200               0
1.81848               -0.7622893       -30.66993        -43.17861        134.5123             -200               0             -200               0
1.82508               -0.7839504        -31.0089        -42.96589         131.103             -200               0             -200               0
1.83168               -0.8064455       -31.35477        -42.74564        127.6915             -200               0             -200               0
1.83828               -0.8298331       -31.70764        -42.51774        124.2711             -200               0             -200               0
1.84488               -0.8541716        -32.0676        -42.28222        120.8352             -200               0             -200               0
1.85149               -0.8795185        -32.4347        -42.03921        117.3772             -200               0             -200               0
1.85809                -0.905932       -32.80899          -41.789        113.8908             -200               0             -200               0
1.86469               -0.9334693       -33.19052        -41.53197        110.3701             -200               0             -200               0
1.87129               -0.9621864       -33.57931        -41.26861        106.8098             -200               0             -200               0
1.87789               -0.9921372       -33.97538        -40.99949         103.205             -200               0             -200               0
1.88449                -1.023378       -34.37875        -40.72525        99.55146             -200               0             -200               0
1.89109                -1.055959       -34.78946        -40.44659        95.84572             -200               0             -200               0
1.89769                -1.089935       -35.20753        -40.16423        92.08484             -200               0             -200               0
1.90429                -1.125356       -35.63299        -39.87892        88.26658             -200               0             -200               0
1.91089                -1.162275       -36.06593         -39.5914        84.38933             -200               0             -200               0
1.91749                -1.200743       -36.50639        -39.30241        80.45206             -200               0             -200               0
1.92409                -1.240814       -36.95449        -39.01268        76.45427             -200               0             -200               0
1.93069                -1.282543       -37.41035         -38.7229        72.39596             -200               0             -200               0
1.93729                -1.325987       -37.87412        -38.43373        68.27755             -200               0             -200               0
1.94389                -1.371209       -38.34597        -38.14579        64.09983             -200               0             -200               0
1.9505                 -1.418275        -38.8261        -37.85966        59.86389             -200               0             -200               0
1.9571                 -1.467257       -39.31476        -37.57587        55.57111             -200               0             -200               0
1.9637                 -1.518233        -39.8122        -37.29492        51.22304             -200               0             -200               0
1.9703                 -1.571291       -40.31871        -37.01725        46.82143             -200               0             -200               0
1.9769                  -1.62653        -40.8346        -36.74328        42.36813             -200               0             -200               0
1.9835                 -1.684051        -41.3602        -36.47336        37.86511             -200               0             -200               0
1.9901                 -1.743975       -41.89584        -36.20783        33.31435             -200               0             -200               0
1.9967                 -1.806432       -42.44188        -35.94697        28.71792             -200               0             -200               0
2.0033                 -1.871566       -42.99866        -35.69105        24.07785             -200               0             -200               0
2.0099                 -1.939534       -43.56653        -35.44028        19.39621             -200               0             -200               0
2.0165                  -2.01051       -44.14581        -35.19486        14.67502             -200               0             -200               0
2.0231                 -2.084683       -44.73682        -34.95497        9.916262             -200               0             -200               0
2.0297                 -2.162258       -45.33982        -34.72076        5.121897             -200               0             -200               0
2.0363                 -2.243458       -45.95506        -34.49235       0.2938276             -200               0             -200               0
2.0429                 -2.328523       -46.58271        -34.26985       -4.566097             -200               0             -200               0
2.0495                 -2.417711        -47.2229        -34.05335       -9.456087             -200               0             -200               0
2.05611                  -2.5113       -47.87568        -33.84292       -14.37441             -200               0             -200               0
2.06271                -2.609584       -48.54102        -33.63863       -19.31938             -200               0             -200               0
2.06931                -2.712877        -49.2188        -33.44054        -24.2894             -200               0             -200               0
2.07591                -2.821513        -49.9088        -33.24867       -29.28292             -200               0             -200               0
2.08251                -2.935842        -50.6107        -33.06306       -34.29843             -200               0             -200               0
2.08911                -3.056239       -51.32403        -32.88373        -39.3345             -200               0             -200               0
2.09571                -3.183095       -52.04822         -32.7107       -44.38974             -200               0             -200               0
2.10231                -3.316823       -52.78253        -32.54397       -49.46284             -200               0             -200               0
2.10891                -3.457858       -53.52609        -32.38355        -54.5525             -200               0             -200               0
2.11551                -3.606656       -54.27785        -32.22944        -59.6575             -200               0             -200               0
2.12211                -3.763694       -55.03657        -32.08164       -64.77666             -200               0             -200               0
2.12871                -3.929479       -55.80084        -31.94013       -69.90883             -200               0             -200               0
2.13531                -4.104539       -56.56901        -31.80491       -75.05291             -200               0             -200               0
2.14191                -4.289432       -57.33923        -31.67596       -80.20783             -200               0             -200               0
2.14851                -4.484744       -58.10936        -31.55327       -85.37257             -200               0             -200               0
2.15512                -4.691098       -58.87701        -31.43682       -90.54614             -200               0             -200               0
2.16172                -4.909149       -59.63945        -31.32659       -95.72756             -200               0             -200               0
2.16832                -5.139595       -60.39361        -31.22257       -100.9159             -200               0             -200               0
2.17492                -5.383175       -61.13603        -31.12473       -106.1103             -200               0             -200               0
2.18152                -5.640681       -61.86277        -31.03305       -111.3097             -200               0             -200               0
2.18812                -5.912955       -62.56937        -30.94752       -116.5135             -200               0             -200               0
2.19472                -6.200904       -63.25078        -30.86811       -121.7206             -200               0             -200               0
2.20132                -6.505504        -63.9012        -30.79479       -126.9303             -200               0             -200               0
2.20792                -6.827803         -64.514        -30.72756       -132.1418             -200               0             -200               0
2.21452                -7.168935       -65.08151        -30.66638       -137.3542             -200               0             -200               0
2.22112                -7.530132       -65.59486        -30.61124       -142.5668             -200               0             -200               0
2.22772                 -7.91272       -66.04367        -30.56211       -147.7788             -200               0             -200               0
2.23432                -8.318141       -66.41576        -30.51898       -152.9894             -200               0             -200               0
2.24092                -8.747948       -66.69668        -30.48181       -158.1978             -200               0             -200               0
2.24752                -9.203809       -66.86917        -30.45059       -163.4034             -200               0             -200               0
2.25413                -9.687497       -66.91252         -30.4253       -168.6052             -200               0             -200               0
2.26073                -10.20087       -66.80155        -30.40591       -173.8026             -200               0             -200               0
2.26733                -10.74579        -66.5055        -30.39241       -178.9949             -200               0             -200               0
2.27393                -11.32408        -65.9865        -30.38477        175.8189             -200               0             -200               0
2.28053                -11.93728       -65.19767        -30.38296        170.6393             -200               0             -200               0
2.28713                 -12.5864       -64.08061        -30.38698        165.4673             -200               0             -200               0
2.29373                -13.27135       -62.56275        -30.39678        160.3035             -200               0             -200               0