! TOUCHSTONE file generated by CST MICROWAVE STUDIO
! Date and time: Tue Mar 18 20:31:45 2025
! Project name: hairline.cst
! Parameters = {B=12.5; D=160; F=25; Feed=2.85625; Fracture=2; L=100; M=50; R=0.384908; S=1.5; Theta=90; length=57.125; wave=114.25}
! Header version: 2024
! Port assignment regex: !\s*Touchstone port\s*([0-9]+)\s*=\s*(CST MWS port|CST DES external port|CST DES block port)\s*(.+)\s* \(\"(.*)\"\)(\s*mode\s*([0-9]+))?.*
! Touchstone port assignment:
! Touchstone port 1 = CST MWS port 1 ("")
! Touchstone port 2 = CST MWS port 2 ("")
# GHz S DB R 50
1                    -0.01942247       -10.01794        -70.61304        116.8719             -200               0             -200               0
1.00758              -0.02041127        -10.1201        -70.81786        111.7402             -200               0             -200               0
1.01515              -0.02141022       -10.22277        -71.05342        106.7764             -200               0             -200               0
1.02273               -0.0224133       -10.32599        -71.32112        102.0048             -200               0             -200               0
1.0303               -0.02341585        -10.4298        -71.62232        97.45578             -200               0             -200               0
1.03788              -0.02441189       -10.53424         -71.9582        93.16657             -200               0             -200               0
1.04545              -0.02540107       -10.63936        -72.32954         89.1836             -200               0             -200               0
1.05303              -0.02637805       -10.74523        -72.73633        85.56436             -200               0             -200               0
1.06061              -0.02734209       -10.85189        -73.17722        82.37963             -200               0             -200               0
1.06818              -0.02829232       -10.95941        -73.64857        79.71545             -200               0             -200               0
1.07576               -0.0292298       -11.06785        -74.14306         77.6736             -200               0             -200               0
1.08333              -0.03015503       -11.17729        -74.64772        76.36835             -200               0             -200               0
1.09091              -0.03107319       -11.28777        -75.14139        75.91552             -200               0             -200               0
1.09848              -0.03198519       -11.39937        -75.59227        76.40804             -200               0             -200               0
1.10606               -0.0328988       -11.51214        -75.95716        77.87324             -200               0             -200               0
1.11364              -0.03381773       -11.62614        -76.18527        80.21716             -200               0             -200               0
1.12121              -0.03474988       -11.74141        -76.22899        83.18219             -200               0             -200               0
1.12879              -0.03570383       -11.85801         -76.0598        86.36212             -200               0             -200               0
1.13636               -0.0366857       -11.97598        -75.68008         89.2958             -200               0             -200               0
1.14394              -0.03770599       -12.09534         -75.1221        91.59501             -200               0             -200               0
1.15152              -0.03877221       -12.21612         -74.4348        93.02753             -200               0             -200               0
1.15909              -0.03989585       -12.33834        -73.66825        93.52117             -200               0             -200               0
1.16667              -0.04108324       -12.46202        -72.86397        93.11671             -200               0             -200               0
1.17424              -0.04234466       -12.58715        -72.05197        91.91315             -200               0             -200               0
1.18182              -0.04368908       -12.71374        -71.25192        90.02774             -200               0             -200               0
1.18939              -0.04512354       -12.84178        -70.47571        87.57396             -200               0             -200               0
1.19697              -0.04665478       -12.97125         -69.7299        84.65205             -200               0             -200               0
1.20455              -0.04829064       -13.10214        -69.01762        81.34649             -200               0             -200               0
1.21212              -0.05003508       -13.23442        -68.33987        77.72689             -200               0             -200               0
1.2197               -0.05189527       -13.36808        -67.69638        73.84996             -200               0             -200               0
1.22727              -0.05387149       -13.50309        -67.08619        69.76179             -200               0             -200               0
1.23485              -0.05596851       -13.63942        -66.50798        65.49988             -200               0             -200               0
1.24242              -0.05818711       -13.77706        -65.96023        61.09489             -200               0             -200               0
1.25                  -0.0605282       -13.91597        -65.44143        56.57201             -200               0             -200               0
1.25758              -0.06298932       -14.05614        -64.95005        51.95215             -200               0             -200               0
1.26515              -0.06557052       -14.19757        -64.48468        47.25278             -200               0             -200               0
1.27273              -0.06826963       -14.34023        -64.04397        42.48862             -200               0             -200               0
1.2803               -0.07108348       -14.48413        -63.62669        37.67224             -200               0             -200               0
1.28788              -0.07400826       -14.62928        -63.23169        32.81444             -200               0             -200               0
1.29545              -0.07704088       -14.77568        -62.85792        27.92464             -200               0             -200               0
1.30303              -0.08017618       -14.92337        -62.50444        23.01112             -200               0             -200               0
1.31061              -0.08341079       -15.07237        -62.17034        18.08126             -200               0             -200               0
1.31818              -0.08674267       -15.22271        -61.85485        13.14174             -200               0             -200               0
1.32576              -0.09016772       -15.37445        -61.55721        8.198647             -200               0             -200               0
1.33333              -0.09368233       -15.52764        -61.27676         3.25763             -200               0             -200               0
1.34091              -0.09728653       -15.68234        -61.01285       -1.676008             -200               0             -200               0
1.34848               -0.1009776       -15.83862         -60.7649       -6.597224             -200               0             -200               0
1.35606               -0.1047568       -15.99655        -60.53236       -11.50116             -200               0             -200               0
1.36364               -0.1086266       -16.15621        -60.31471       -16.38307             -200               0             -200               0
1.37121               -0.1125884       -16.31769        -60.11145       -21.23829             -200               0             -200               0
1.37879               -0.1166485       -16.48107         -59.9221       -26.06217             -200               0             -200               0
1.38636               -0.1208104       -16.64642        -59.74617       -30.85001             -200               0             -200               0
1.39394               -0.1250831       -16.81385        -59.58318       -35.59709             -200               0             -200               0
1.40152               -0.1294735       -16.98343        -59.43263       -40.29858             -200               0             -200               0
1.40909               -0.1339934       -17.15524        -59.29403       -44.94954             -200               0             -200               0
1.41667               -0.1386541       -17.32936        -59.16683       -49.54488             -200               0             -200               0
1.42424               -0.1434675       -17.50586        -59.05044        -54.0794             -200               0             -200               0
1.43182               -0.1484476       -17.68479        -58.94424       -58.54775             -200               0             -200               0
1.43939               -0.1536094       -17.86622        -58.84752       -62.94443             -200               0             -200               0
1.44697               -0.1589678        -18.0502        -58.75951       -67.26387             -200               0             -200               0
1.45455               -0.1645374       -18.23676        -58.67934       -71.50041             -200               0             -200               0
1.46212               -0.1703362       -18.42594        -58.60602       -75.64842             -200               0             -200               0
1.4697                -0.1763804       -18.61776        -58.53845       -79.70236             -200               0             -200               0
1.47727                -0.182685       -18.81223        -58.47539       -83.65689             -200               0             -200               0
1.48485               -0.1892663       -19.00935        -58.41543       -87.50706             -200               0             -200               0
1.49242                 -0.19614       -19.20912        -58.35701       -91.24848             -200               0             -200               0
1.5                   -0.2033201       -19.41153        -58.29839       -94.87757             -200               0             -200               0
1.50758               -0.2108211       -19.61657        -58.23768       -98.39178             -200               0             -200               0
1.51515               -0.2186551       -19.82421        -58.17279         -101.79             -200               0             -200               0
1.52273               -0.2268337       -20.03441        -58.10152       -105.0726             -200               0             -200               0
1.5303                -0.2353679       -20.24717        -58.02157       -108.2423             -200               0             -200               0
1.53788               -0.2442661       -20.46244        -57.93056       -111.3038             -200               0             -200               0
1.54545               -0.2535357       -20.68021        -57.82614       -114.2645             -200               0             -200               0
1.55303               -0.2631838       -20.90043        -57.70604       -117.1344             -200               0             -200               0
1.56061               -0.2732163        -21.1231        -57.56817       -119.9261             -200               0             -200               0
1.56818               -0.2836363       -21.34819        -57.41073       -122.6549             -200               0             -200               0
1.57576               -0.2944461       -21.57569        -57.23225        -125.338             -200               0             -200               0
1.58333               -0.3056495        -21.8056        -57.03175       -127.9944             -200               0             -200               0
1.59091               -0.3172473       -22.03793        -56.80869       -130.6442             -200               0             -200               0
1.59848               -0.3292401        -22.2727         -56.5631       -133.3076             -200               0             -200               0
1.60606               -0.3416287       -22.50993        -56.29549       -136.0042             -200               0             -200               0
1.61364               -0.3544134       -22.74967        -56.00686       -138.7527             -200               0             -200               0
1.62121               -0.3675953       -22.99197        -55.69865       -141.5696             -200               0             -200               0
1.62879               -0.3811767        -23.2369        -55.37258       -144.4694             -200               0             -200               0
1.63636               -0.3951586       -23.48452        -55.03065       -147.4639             -200               0             -200               0
1.64394               -0.4095449       -23.73494          -54.675       -150.5623             -200               0             -200               0
1.65152               -0.4243402       -23.98826        -54.30781       -153.7711             -200               0             -200               0
1.65909               -0.4395502       -24.24458        -53.93125       -157.0946             -200               0             -200               0
1.66667               -0.4551836       -24.50404        -53.54743       -160.5346             -200               0             -200               0
1.67424                 -0.47125       -24.76675         -53.1583       -164.0912             -200               0             -200               0
1.68182               -0.4877615       -25.03285        -52.76569        -167.763             -200               0             -200               0
1.68939               -0.5047328       -25.30249        -52.37124       -171.5473             -200               0             -200               0
1.69697                -0.522181       -25.57581        -51.97642       -175.4404             -200               0             -200               0
1.70455               -0.5401248       -25.85295         -51.5825       -179.4382             -200               0             -200               0
1.71212               -0.5585849       -26.13407        -51.19063        176.4642             -200               0             -200               0
1.7197                 -0.577589       -26.41931        -50.80175        172.2718             -200               0             -200               0
1.72727               -0.5971612       -26.70881        -50.41668        167.9897             -200               0             -200               0
1.73485               -0.6173316       -27.00271         -50.0361        163.6231             -200               0             -200               0
1.74242               -0.6381309       -27.30114         -49.6606        159.1771             -200               0             -200               0
1.75                  -0.6595934       -27.60423        -49.29062        154.6565             -200               0             -200               0
1.75758               -0.6817539       -27.91208        -48.92656        150.0663             -200               0             -200               0
1.76515               -0.7046473       -28.22481        -48.56871        145.4108             -200               0             -200               0
1.77273               -0.7283161       -28.54252         -48.2173        140.6945             -200               0             -200               0
1.7803                -0.7527972       -28.86528        -47.87253        135.9214             -200               0             -200               0
1.78788               -0.7781328       -29.19318        -47.53451        131.0952             -200               0             -200               0
1.79545               -0.8043633       -29.52629        -47.20334        126.2197             -200               0             -200               0
1.80303               -0.8315313       -29.86467        -46.87907        121.2981             -200               0             -200               0
1.81061               -0.8596794       -30.20835        -46.56175        116.3337             -200               0             -200               0
1.81818                -0.888852       -30.55741        -46.25136        111.3292             -200               0             -200               0
1.82576               -0.9190903       -30.91186        -45.94791        106.2874             -200               0             -200               0
1.83333               -0.9504391       -31.27176        -45.65135        101.2109             -200               0             -200               0
1.84091               -0.9829412       -31.63712        -45.36166        96.10199             -200               0             -200               0
1.84848                 -1.01664         -32.008        -45.07877        90.96288             -200               0             -200               0
1.85606                 -1.05158       -32.38442        -44.80262        85.79561             -200               0             -200               0
1.86364                -1.087805       -32.76644        -44.53316        80.60206             -200               0             -200               0
1.87121                -1.125361       -33.15409        -44.27031        75.38401             -200               0             -200               0
1.87879                -1.164291       -33.54744        -44.01398        70.14309             -200               0             -200               0
1.88636                -1.204644       -33.94655        -43.76412        64.88084             -200               0             -200               0
1.89394                -1.246467        -34.3515        -43.52064         59.5987             -200               0             -200               0
1.90152                -1.289811       -34.76238        -43.28345        54.29797             -200               0             -200               0
1.90909                -1.334729       -35.17931        -43.05248        48.97993             -200               0             -200               0
1.91667                -1.381275        -35.6024        -42.82765        43.64572             -200               0             -200               0
1.92424                 -1.42951       -36.03179        -42.60888        38.29644             -200               0             -200               0
1.93182                -1.479498       -36.46763        -42.39609         32.9331             -200               0             -200               0
1.93939                -1.531306        -36.9101        -42.18921        27.55668             -200               0             -200               0
1.94697                -1.585009       -37.35939        -41.98815        22.16805             -200               0             -200               0
1.95455                -1.640688       -37.81567        -41.79285        16.76807             -200               0             -200               0
1.96212                 -1.69843       -38.27917        -41.60323        11.35753             -200               0             -200               0
1.9697                 -1.758331        -38.7501        -41.41923        5.937183             -200               0             -200               0
1.97727                -1.820494       -39.22868        -41.24076       0.5077316             -200               0             -200               0
1.98485                -1.885033       -39.71513        -41.06778        -4.93016             -200               0             -200               0
1.99242                -1.952072       -40.20969        -40.90021       -10.37586             -200               0             -200               0
2                      -2.021744       -40.71256        -40.73799       -15.82877             -200               0             -200               0
2.00758                -2.094193       -41.22394        -40.58106       -21.28832             -200               0             -200               0
2.01515                -2.169579       -41.74403        -40.42936       -26.75398             -200               0             -200               0
2.02273                 -2.24807       -42.27301        -40.28284       -32.22524             -200               0             -200               0
2.0303                 -2.329849       -42.81098        -40.14144        -37.7016             -200               0             -200               0
2.03788                -2.415112       -43.35807        -40.00511       -43.18261             -200               0             -200               0
2.04545                -2.504071       -43.91433        -39.87381       -48.66782             -200               0             -200               0
2.05303                -2.596949       -44.47977        -39.74747       -54.15681             -200               0             -200               0
2.06061                 -2.69399       -45.05437        -39.62606       -59.64917             -200               0             -200               0
2.06818                -2.795447       -45.63799        -39.50953        -65.1445             -200               0             -200               0
2.07576                -2.901595       -46.23048        -39.39784       -70.64245             -200               0             -200               0
2.08333                -3.012721       -46.83158        -39.29095       -76.14263             -200               0             -200               0
2.09091                -3.129133       -47.44094        -39.18881       -81.64471             -200               0             -200               0
2.09848                -3.251156       -48.05813         -39.0914       -87.14835             -200               0             -200               0
2.10606                -3.379133        -48.6826        -38.99867       -92.65322             -200               0             -200               0
2.11364                -3.513427        -49.3137         -38.9106         -98.159             -200               0             -200               0
2.12121                -3.654423       -49.95063        -38.82714       -103.6654             -200               0             -200               0
2.12879                -3.802525       -50.59249        -38.74827       -109.1721             -200               0             -200               0
2.13636                -3.958165       -51.23818        -38.67396       -114.6788             -200               0             -200               0
2.14394                -4.121796       -51.88647        -38.60418       -120.1852             -200               0             -200               0
2.15152                -4.293899       -52.53594         -38.5389       -125.6911             -200               0             -200               0
2.15909                -4.474983       -53.18494         -38.4781       -131.1962             -200               0             -200               0
2.16667                -4.665592       -53.83163        -38.42175       -136.7002             -200               0             -200               0
2.17424                -4.866299       -54.47388        -38.36984       -142.2028             -200               0             -200               0
2.18182                -5.077719        -55.1093        -38.32234       -147.7038             -200               0             -200               0
2.18939                -5.300509       -55.73516        -38.27923       -153.2029             -200               0             -200               0
2.19697                -5.535369       -56.34835        -38.24049       -158.6999             -200               0             -200               0
2.20455                -5.783053       -56.94535        -38.20611       -164.1946             -200               0             -200               0
2.21212                 -6.04437       -57.52211        -38.17607       -169.6865             -200               0             -200               0
2.2197                 -6.320193       -58.07402        -38.15035       -175.1756             -200               0             -200               0
2.22727                -6.611466       -58.59577        -38.12894        179.3385             -200               0             -200               0
2.23485                 -6.91921       -59.08123        -38.11183        173.8559             -200               0             -200               0
2.24242                -7.244535       -59.52329          -38.099         168.377             -200               0             -200               0
2.25                   -7.588645       -59.91368        -38.09045         162.902             -200               0             -200               0
2.25758                -7.952848       -60.24265        -38.08617        157.4311             -200               0             -200               0
2.26515                -8.338563       -60.49871        -38.08613        151.9646             -200               0             -200               0
2.27273                -8.747333        -60.6682        -38.09035        146.5028             -200               0             -200               0
2.2803                 -9.180813       -60.73475        -38.09882        141.0459             -200               0             -200               0
2.28788                 -9.64077       -60.67861        -38.11151        135.5942             -200               0             -200               0
2.29545                -10.12907       -60.47574        -38.12844        130.1479             -200               0             -200               0
2.30303                 -10.6476       -60.09673         -38.1496        124.7074             -200               0             -200               0
2.31061                -11.19822       -59.50527        -38.17498        119.2728             -200               0             -200               0
2.31818                -11.78256       -58.65632        -38.20458        113.8445             -200               0             -200               0
2.32576                -12.40177       -57.49375        -38.23841        108.4227             -200               0             -200               0
2.33333                -13.05602        -55.9476        -38.27645        103.0077             -200               0             -200               0
2.34091                 -13.7437       -53.93102        -38.31871        97.59989             -200               0             -200               0
2.34848                 -14.4602       -51.33785         -38.3652        92.19947             -200               0             -200               0
2.35606                -15.19589       -48.04236         -38.4159        86.80678             -200               0             -200               0
2.36364                -15.93333       -43.90504        -38.47083        81.42212             -200               0             -200               0
2.37121                -16.64387        -38.7911        -38.52999        76.04583             -200               0             -200               0
2.37879                 -17.2847       -32.61013        -38.59337        70.67822             -200               0             -200               0
2.38636                -17.79966       -25.38148        -38.66099        65.31964             -200               0             -200               0
2.39394                -18.12809       -17.30644        -38.73285        59.97044             -200               0             -200               0
2.40152                -18.22336       -8.794321        -38.80895        54.63096             -200               0             -200               0
2.40909                -18.07272      -0.3842845         -38.8893        49.30158             -200               0             -200               0
2.41667                 -17.7036        7.417665         -38.9739        43.98267             -200               0             -200               0
2.42424                -17.17051        14.27874        -39.06276        38.67463             -200               0             -200               0
2.43182                -16.53406        20.07416        -39.15589        33.37785             -200               0             -200               0
2.43939                -15.84577        24.83536         -39.2533        28.09275             -200               0             -200               0
2.44697                -15.14281        28.67595        -39.35498        22.81976             -200               0             -200               0
2.45455                 -14.4491        31.73581        -39.46094        17.55931             -200               0             -200               0
2.46212                -13.77866        34.15039         -39.5712        12.31187             -200               0             -200               0
2.4697                 -13.13886        36.03807        -39.68576        7.077906             -200               0             -200               0
2.47727                -12.53295        37.49733        -39.80463        1.857903             -200               0             -200               0
2.48485                -11.96168        38.60803         -39.9278       -3.347632             -200               0             -200               0