! TOUCHSTONE file generated by CST MICROWAVE STUDIO
! Date and time: Tue Mar 18 20:31:44 2025
! Project name: hairline.cst
! Parameters = {B=12.5; D=160; F=25; Feed=2.85625; Fracture=1; L=100; M=30; R=0.384908; S=1.5; Theta=90; length=57.125; wave=114.25}
! Header version: 2024
! Port assignment regex: !\s*Touchstone port\s*([0-9]+)\s*=\s*(CST MWS port|CST DES external port|CST DES block port)\s*(.+)\s* \(\"(.*)\"\)(\s*mode\s*([0-9]+))?.*
! Touchstone port assignment:
! Touchstone port 1 = CST MWS port 1 ("")
! Touchstone port 2 = CST MWS port 2 ("")
# GHz S DB R 50
1                    -0.02124674       -9.746603        -66.21372         161.991             -200               0             -200               0
1.00658              -0.02181646       -9.832063        -66.26137        156.2626             -200               0             -200               0
1.01316              -0.02235785       -9.918214        -66.34331        150.6537             -200               0             -200               0
1.01974              -0.02287493       -10.00512        -66.46076        145.1763             -200               0             -200               0
1.02632              -0.02337152       -10.09284        -66.61514        139.8452             -200               0             -200               0
1.03289              -0.02385503       -10.18143        -66.80811        134.6793             -200               0             -200               0
1.03947              -0.02433255       -10.27093        -67.04148        129.7028             -200               0             -200               0
1.04605              -0.02481079       -10.36138        -67.31723        124.9459             -200               0             -200               0
1.05263              -0.02530038       -10.45282         -67.6374        120.4472             -200               0             -200               0
1.05921              -0.02580996       -10.54526        -68.00389        116.2561             -200               0             -200               0
1.06579              -0.02634909       -10.63873        -68.41818        112.4354             -200               0             -200               0
1.07237              -0.02692802       -10.73321        -68.88072        109.0657             -200               0             -200               0
1.07895               -0.0275558       -10.82872        -69.38994        106.2494             -200               0             -200               0
1.08553              -0.02824111       -10.92522        -69.94063        104.1151             -200               0             -200               0
1.09211              -0.02899298        -11.0227        -70.52113        102.8183             -200               0             -200               0
1.09868              -0.02981913       -11.12113        -71.10938        102.5342             -200               0             -200               0
1.10526              -0.03072536       -11.22047        -71.66781        103.4302             -200               0             -200               0
1.11184              -0.03171668       -11.32067        -72.13938        105.6044             -200               0             -200               0
1.11842              -0.03279774       -11.42169        -72.45024        108.9852             -200               0             -200               0
1.125                -0.03397055       -11.52348        -72.52632         113.234             -200               0             -200               0
1.13158              -0.03523642       -11.62598        -72.32298        117.7496             -200               0             -200               0
1.13816              -0.03659376       -11.72914        -71.84848         121.843             -200               0             -200               0
1.14474              -0.03804157       -11.83292        -71.15925        124.9802             -200               0             -200               0
1.15132              -0.03957523       -11.93728        -70.33183        126.9082             -200               0             -200               0
1.15789              -0.04119131       -12.04217        -69.43588        127.6181             -200               0             -200               0
1.16447              -0.04288267       -12.14756        -68.52235        127.2378             -200               0             -200               0
1.17105              -0.04464286       -12.25343        -67.62346        125.9425             -200               0             -200               0
1.17763              -0.04646468       -12.35977        -66.75752        123.9039             -200               0             -200               0
1.18421              -0.04833895       -12.46656        -65.93369        121.2707             -200               0             -200               0
1.19079              -0.05025779       -12.57383        -65.15568        118.1645             -200               0             -200               0
1.19737              -0.05221184       -12.68157         -64.4241        114.6821             -200               0             -200               0
1.20395              -0.05419389       -12.78983        -63.73786        110.8999             -200               0             -200               0
1.21053              -0.05619491       -12.89863        -63.09508        106.8779             -200               0             -200               0
1.21711              -0.05820898       -13.00803        -62.49351        102.6639             -200               0             -200               0
1.22368              -0.06022942       -13.11808        -61.93084        98.29586             -200               0             -200               0
1.23026              -0.06225083       -13.22885        -61.40483        93.80448             -200               0             -200               0
1.23684              -0.06427062       -13.34041        -60.91337        89.21475             -200               0             -200               0
1.24342               -0.0662854       -13.45282        -60.45451        84.54732             -200               0             -200               0
1.25                 -0.06829579       -13.56618        -60.02648        79.81944             -200               0             -200               0
1.25658              -0.07030291       -13.68056        -59.62771        75.04571             -200               0             -200               0
1.26316              -0.07230937       -13.79605        -59.25675        70.23873             -200               0             -200               0
1.26974              -0.07431999       -13.91271        -58.91232        65.40947             -200               0             -200               0
1.27632              -0.07634053       -14.03062        -58.59327        60.56769             -200               0             -200               0
1.28289              -0.07837813       -14.14986        -58.29856         55.7222             -200               0             -200               0
1.28947              -0.08044324       -14.27048        -58.02725        50.88109             -200               0             -200               0
1.29605              -0.08254451       -14.39254        -57.77852        46.05193             -200               0             -200               0
1.30263              -0.08469313       -14.51607        -57.55159         41.2419             -200               0             -200               0
1.30921              -0.08690102       -14.64112        -57.34576        36.45799             -200               0             -200               0
1.31579              -0.08917895       -14.76771        -57.16038        31.70704             -200               0             -200               0
1.32237              -0.09153991       -14.89585        -56.99483        26.99587             -200               0             -200               0
1.32895              -0.09399559       -15.02554        -56.84853         22.3314             -200               0             -200               0
1.33553              -0.09655649       -15.15676        -56.72091         17.7207             -200               0             -200               0
1.34211              -0.09923359       -15.28951        -56.61138        13.17104             -200               0             -200               0
1.34868               -0.1020356       -15.42376        -56.51934         8.69003             -200               0             -200               0
1.35526               -0.1049723       -15.55946        -56.44416        4.285587             -200               0             -200               0
1.36184               -0.1080476       -15.69657        -56.38515     -0.03396458             -200               0             -200               0
1.36842               -0.1112696       -15.83506        -56.34151       -4.259885             -200               0             -200               0
1.375                 -0.1146406       -15.97487        -56.31237       -8.383011             -200               0             -200               0
1.38158               -0.1181618       -16.11595        -56.29669       -12.39378             -200               0             -200               0
1.38816               -0.1218332       -16.25826        -56.29328       -16.28229             -200               0             -200               0
1.39474                -0.125654       -16.40175         -56.3007       -20.03841             -200               0             -200               0
1.40132               -0.1296205       -16.54639        -56.31729       -23.65194             -200               0             -200               0
1.40789               -0.1337269       -16.69214         -56.3411       -27.11293             -200               0             -200               0
1.41447               -0.1379682       -16.83899        -56.36981       -30.41194             -200               0             -200               0
1.42105               -0.1423361       -16.98691        -56.40077       -33.54063             -200               0             -200               0
1.42763               -0.1468236       -17.13592        -56.43093       -36.49228             -200               0             -200               0
1.43421               -0.1514215       -17.28603        -56.45686       -39.26255             -200               0             -200               0
1.44079               -0.1561212       -17.43725        -56.47478       -41.85031             -200               0             -200               0
1.44737               -0.1609145       -17.58964        -56.48064       -44.25851             -200               0             -200               0
1.45395               -0.1657923       -17.74325        -56.47021       -46.49495             -200               0             -200               0
1.46053               -0.1707473       -17.89814         -56.4393       -48.57301             -200               0             -200               0
1.46711               -0.1757749       -18.05441        -56.38393       -50.51194             -200               0             -200               0
1.47368                -0.180868       -18.21212        -56.30062       -52.33675             -200               0             -200               0
1.48026               -0.1860237       -18.37139        -56.18661        -54.0775             -200               0             -200               0
1.48684               -0.1912421       -18.53233        -56.04007       -55.76808             -200               0             -200               0
1.49342               -0.1965233       -18.69504        -55.86028       -57.44445             -200               0             -200               0
1.5                   -0.2018694       -18.85966        -55.64769       -59.14263             -200               0             -200               0
1.50658               -0.2072871       -19.02629        -55.40383       -60.89667             -200               0             -200               0
1.51316               -0.2127828       -19.19505        -55.13119       -62.73688             -200               0             -200               0
1.51974               -0.2183659       -19.36608        -54.83301       -64.68855             -200               0             -200               0
1.52632               -0.2240495       -19.53946        -54.51301       -66.77121             -200               0             -200               0
1.53289               -0.2298469       -19.71532        -54.17517       -68.99846             -200               0             -200               0
1.53947               -0.2357735       -19.89373        -53.82348       -71.37832             -200               0             -200               0
1.54605               -0.2418459       -20.07479        -53.46178        -73.9138             -200               0             -200               0
1.55263               -0.2480843       -20.25857        -53.09363       -76.60377             -200               0             -200               0
1.55921                -0.254506       -20.44512        -52.72221       -79.44379             -200               0             -200               0
1.56579               -0.2611318       -20.63449        -52.35034       -82.42699             -200               0             -200               0
1.57237               -0.2679813        -20.8267        -51.98042       -85.54475             -200               0             -200               0
1.57895               -0.2750742       -21.02176        -51.61445       -88.78738             -200               0             -200               0
1.58553               -0.2824283       -21.21969         -51.2541       -92.14454             -200               0             -200               0
1.59211                -0.290064       -21.42045        -50.90071       -95.60567             -200               0             -200               0
1.59868                -0.297995       -21.62404        -50.55534       -99.16025             -200               0             -200               0
1.60526               -0.3062381       -21.83042         -50.2188        -102.798             -200               0             -200               0
1.61184               -0.3148064       -22.03954         -49.8917       -106.5089             -200               0             -200               0
1.61842               -0.3237099       -22.25136        -49.57446       -110.2835             -200               0             -200               0
1.625                 -0.3329581       -22.46583        -49.26736       -114.1127             -200               0             -200               0
1.63158               -0.3425562       -22.68291        -48.97055        -117.988             -200               0             -200               0
1.63816               -0.3525099       -22.90254        -48.68406       -121.9012             -200               0             -200               0
1.64474               -0.3628193       -23.12469        -48.40783       -125.8448             -200               0             -200               0
1.65132               -0.3734845       -23.34933        -48.14173       -129.8115             -200               0             -200               0
1.65789               -0.3845028       -23.57645        -47.88554       -133.7945             -200               0             -200               0
1.66447               -0.3958706       -23.80603        -47.63899       -137.7876             -200               0             -200               0
1.67105               -0.4075812        -24.0381        -47.40174       -141.7846             -200               0             -200               0
1.67763               -0.4196286       -24.27268        -47.17339       -145.7801             -200               0             -200               0
1.68421                -0.432005       -24.50983        -46.95352       -149.7686             -200               0             -200               0
1.69079               -0.4447036       -24.74961        -46.74163       -153.7453             -200               0             -200               0
1.69737               -0.4577173       -24.99215        -46.53718       -157.7055             -200               0             -200               0
1.70395               -0.4710402       -25.23753        -46.33958       -161.6451             -200               0             -200               0
1.71053               -0.4846673       -25.48592        -46.14821       -165.5601             -200               0             -200               0
1.71711               -0.4985962       -25.73747        -45.96237        -169.447             -200               0             -200               0
1.72368               -0.5128262       -25.99236        -45.78135       -173.3027             -200               0             -200               0
1.73026               -0.5273599        -26.2508        -45.60438       -177.1245             -200               0             -200               0
1.73684               -0.5422037       -26.51301        -45.43066        179.0896             -200               0             -200               0
1.74342               -0.5573668       -26.77921        -45.25933        175.3415             -200               0             -200               0
1.75                  -0.5728616       -27.04964        -45.08953        171.6322             -200               0             -200               0
1.75658               -0.5887072       -27.32456        -44.92036        167.9622             -200               0             -200               0
1.76316               -0.6049235       -27.60421         -44.7509        164.3313             -200               0             -200               0
1.76974               -0.6215384       -27.88885        -44.58023        160.7388             -200               0             -200               0
1.77632                -0.638582       -28.17873        -44.40745         157.183             -200               0             -200               0
1.78289                -0.656088       -28.47409        -44.23168        153.6617             -200               0             -200               0
1.78947               -0.6740954       -28.77516        -44.05204        150.1719             -200               0             -200               0
1.79605                -0.692647       -29.08217        -43.86776        146.7099             -200               0             -200               0
1.80263                -0.711788       -29.39532        -43.67811        143.2713             -200               0             -200               0
1.80921               -0.7315674       -29.71479        -43.48243         139.851             -200               0             -200               0
1.81579               -0.7520371       -30.04077         -43.2802        136.4435             -200               0             -200               0
1.82237               -0.7732494       -30.37339        -43.07099        133.0429             -200               0             -200               0
1.82895               -0.7952606        -30.7128        -42.85448        129.6427             -200               0             -200               0
1.83553               -0.8181257        -31.0591        -42.63051        126.2366             -200               0             -200               0
1.84211               -0.8419035       -31.41239        -42.39903        122.8179             -200               0             -200               0
1.84868               -0.8666501       -31.77274        -42.16013        119.3802             -200               0             -200               0
1.85526               -0.8924236       -32.14022        -41.91402        115.9171             -200               0             -200               0
1.86184               -0.9192798       -32.51485        -41.66103        112.4228             -200               0             -200               0
1.86842               -0.9472766       -32.89669        -41.40159        108.8918             -200               0             -200               0
1.875                 -0.9764671       -33.28577        -41.13623         105.319             -200               0             -200               0
1.88158                -1.006907       -33.68209        -40.86554        101.7001             -200               0             -200               0
1.88816                -1.038649        -34.0857        -40.59017        98.03116             -200               0             -200               0
1.89474                -1.071747       -34.49661        -40.31083        94.30919             -200               0             -200               0
1.90132                -1.106251       -34.91488        -40.02823         90.5316             -200               0             -200               0
1.90789                -1.142213       -35.34055         -39.7431        86.69653             -200               0             -200               0
1.91447                -1.179686       -35.77368        -39.45618        82.80268             -200               0             -200               0
1.92105                -1.218722       -36.21437        -39.16817        78.84928             -200               0             -200               0
1.92763                -1.259374       -36.66271        -38.87978        74.83611             -200               0             -200               0
1.93421                -1.301701       -37.11885        -38.59167        70.76334             -200               0             -200               0
1.94079                -1.345759       -37.58293        -38.30447        66.63156             -200               0             -200               0
1.94737                -1.391616       -38.05514        -38.01876        62.44169             -200               0             -200               0
1.95395                -1.439337       -38.53571         -37.7351        58.19492             -200               0             -200               0
1.96053                -1.488997       -39.02486        -37.45399        53.89269             -200               0             -200               0
1.96711                 -1.54068       -39.52287        -37.17589         49.5366             -200               0             -200               0
1.97368                -1.594475       -40.03002        -36.90123        45.12841             -200               0             -200               0
1.98026                -1.650481       -40.54661        -36.63039        40.66999             -200               0             -200               0
1.98684                -1.708809       -41.07299         -36.3637        36.16328             -200               0             -200               0
1.99342                -1.769581       -41.60949        -36.10148        31.61025             -200               0             -200               0
2                      -1.832931       -42.15644          -35.844        27.01292             -200               0             -200               0
2.00658                -1.899007       -42.71419         -35.5915        22.37329             -200               0             -200               0
2.01316                -1.967971       -43.28306        -35.34418        17.69338             -200               0             -200               0
2.01974                    -2.04       -43.86338        -35.10223        12.97515             -200               0             -200               0
2.02632                -2.115288       -44.45542        -34.86581        8.220536             -200               0             -200               0
2.03289                -2.194044       -45.05944        -34.63506        3.431446             -200               0             -200               0
2.03947                -2.276496       -45.67565        -34.41009       -1.390277             -200               0             -200               0
2.04605                -2.362886       -46.30422        -34.19102       -6.242838             -200               0             -200               0
2.05263                -2.453479       -46.94522        -33.97791        -11.1245             -200               0             -200               0
2.05921                -2.548553       -47.59869        -33.77084       -16.03358             -200               0             -200               0
2.06579                -2.648407       -48.26456        -33.56987       -20.96846             -200               0             -200               0
2.07237                 -2.75336       -48.94267        -33.37504       -25.92758             -200               0             -200               0
2.07895                -2.863745       -49.63276        -33.18639       -30.90943             -200               0             -200               0
2.08553                -2.979921       -50.33446        -33.00394       -35.91256             -200               0             -200               0
2.09211                -3.102262       -51.04728        -32.82773       -40.93557             -200               0             -200               0
2.09868                -3.231162       -51.77059        -32.65775       -45.97713             -200               0             -200               0
2.10526                -3.367039       -52.50362        -32.49402       -51.03595             -200               0             -200               0
2.11184                -3.510328       -53.24544        -32.33655       -56.11078             -200               0             -200               0
2.11842                -3.661489       -53.99494        -32.18532       -61.20042             -200               0             -200               0
2.125                  -3.821004       -54.75085        -32.04033       -66.30374             -200               0             -200               0
2.13158                -3.989381       -55.51169        -31.90159        -71.4196             -200               0             -200               0
2.13816                -4.167154       -56.27574        -31.76906       -76.54694             -200               0             -200               0
2.14474                -4.354881        -57.0411        -31.64275       -81.68474             -200               0             -200               0
2.15132                -4.553158       -57.80557        -31.52264       -86.83197             -200               0             -200               0
2.15789                -4.762609       -58.56665        -31.40871       -91.98766             -200               0             -200               0
2.16447                -4.983896       -59.32155        -31.30094       -97.15089             -200               0             -200               0
2.17105                -5.217723        -60.0671        -31.19931       -102.3207             -200               0             -200               0
2.17763                -5.464838       -60.79972        -31.10381       -107.4963             -200               0             -200               0
2.18421                -5.726038       -61.51535        -31.01442       -112.6767             -200               0             -200               0
2.19079                -6.002178        -62.2094        -30.93111       -117.8611             -200               0             -200               0
2.19737                -6.294174       -62.87663        -30.85387       -123.0486             -200               0             -200               0
2.20395                -6.603011       -63.51108        -30.78268       -128.2386             -200               0             -200               0
2.21053                -6.929754       -64.10584         -30.7175         -133.43             -200               0             -200               0
2.21711                -7.275551       -64.65299        -30.65833       -138.6222             -200               0             -200               0
2.22368                -7.641645       -65.14331        -30.60514       -143.8144             -200               0             -200               0
2.23026                -8.029381       -65.56604        -30.55792       -149.0059             -200               0             -200               0
2.23684                -8.440213       -65.90844        -30.51663       -154.1957             -200               0             -200               0
2.24342                -8.875709        -66.1555        -30.48126       -159.3833             -200               0             -200               0
2.25                   -9.337541       -66.28919        -30.45179       -164.5678             -200               0             -200               0
2.25658                -9.827485       -66.28782         -30.4282       -169.7485             -200               0             -200               0
2.26316                -10.34738       -66.12505        -30.41046       -174.9246             -200               0             -200               0
2.26974                -10.89906       -65.76864        -30.39856        179.9046             -200               0             -200               0
2.27632                -11.48424       -65.17884        -30.39247        174.7399             -200               0             -200               0
2.28289                -12.10434       -64.30645        -30.39218         169.582             -200               0             -200               0
2.28947                -12.76008       -63.09026        -30.39765        164.4317             -200               0             -200               0