! TOUCHSTONE file generated by CST MICROWAVE STUDIO
! Date and time: Tue Mar 18 20:31:42 2025
! Project name: hairline.cst
! Parameters = {B=12.5; D=160; F=15; Feed=2.85625; Fracture=1; L=100; M=50; R=0.384908; S=1.5; Theta=90; length=57.125; wave=114.25}
! Header version: 2024
! Port assignment regex: !\s*Touchstone port\s*([0-9]+)\s*=\s*(CST MWS port|CST DES external port|CST DES block port)\s*(.+)\s* \(\"(.*)\"\)(\s*mode\s*([0-9]+))?.*
! Touchstone port assignment:
! Touchstone port 1 = CST MWS port 1 ("")
! Touchstone port 2 = CST MWS port 2 ("")
# GHz S DB R 50
1                    -0.02028991       -9.750426         -68.0436        160.4633             -200               0             -200               0
1.0066               -0.02106305       -9.837962        -67.99391        154.7673             -200               0             -200               0
1.0132                -0.0218528       -9.925993        -67.97527        149.1662             -200               0             -200               0
1.0198               -0.02265739       -10.01453        -67.98814        143.6673             -200               0             -200               0
1.0264               -0.02347558        -10.1036        -68.03309        138.2795             -200               0             -200               0
1.033                 -0.0243049        -10.1932        -68.11087        133.0142             -200               0             -200               0
1.0396               -0.02514648       -10.28338        -68.22237        127.8854             -200               0             -200               0
1.0462               -0.02599777       -10.37414        -68.36857        122.9103             -200               0             -200               0
1.05281              -0.02685976       -10.46552        -68.55059        118.1102             -200               0             -200               0
1.05941               -0.0277319       -10.55753        -68.76952        113.5114             -200               0             -200               0
1.06601              -0.02861513       -10.65021        -69.02642        109.1462             -200               0             -200               0
1.07261               -0.0295103       -10.74357         -69.3221         105.055             -200               0             -200               0
1.07921              -0.03041887       -10.83766        -69.65688        101.2874             -200               0             -200               0
1.08581              -0.03134281       -10.93248        -70.03012        97.90491             -200               0             -200               0
1.09241              -0.03228465       -11.02807        -70.43958        94.98262             -200               0             -200               0
1.09901              -0.03324685       -11.12444        -70.88034        92.61096             -200               0             -200               0
1.10561              -0.03423202       -11.22161        -71.34324        90.89495             -200               0             -200               0
1.11221              -0.03524335       -11.31961        -71.81275        89.94882             -200               0             -200               0
1.11881              -0.03628404       -11.41844        -72.26446        89.88122             -200               0             -200               0
1.12541              -0.03735846       -11.51812        -72.66308        90.76543             -200               0             -200               0
1.13201              -0.03846888       -11.61866        -72.96292        92.59235             -200               0             -200               0
1.13861              -0.03961829       -11.72006        -73.11382         95.2172             -200               0             -200               0
1.14521              -0.04081074       -11.82232        -73.07385         98.3333             -200               0             -200               0
1.15182              -0.04204878       -11.92545        -72.82441        101.5128             -200               0             -200               0
1.15842              -0.04333552       -12.02945        -72.37817         104.316             -200               0             -200               0
1.16502              -0.04467262       -12.13431        -71.77352        106.4075             -200               0             -200               0
1.17162              -0.04606173       -12.24003        -71.06003        107.6127             -200               0             -200               0
1.17822              -0.04750453        -12.3466        -70.28466        107.9009             -200               0             -200               0
1.18482              -0.04900221       -12.45402        -69.48464        107.3342             -200               0             -200               0
1.19142              -0.05055433       -12.56229        -68.68612        106.0179             -200               0             -200               0
1.19802              -0.05216243        -12.6714        -67.90588        104.0677             -200               0             -200               0
1.20462              -0.05382457       -12.78135        -67.15387        101.5916             -200               0             -200               0
1.21122              -0.05554109       -12.89215        -66.43542        98.68393             -200               0             -200               0
1.21782              -0.05730972       -13.00379        -65.75293        95.42391             -200               0             -200               0
1.22442              -0.05913021       -13.11627        -65.10699        91.87666             -200               0             -200               0
1.23102              -0.06099949       -13.22962        -64.49711        88.09541             -200               0             -200               0
1.23762              -0.06291633       -13.34385        -63.92223        84.12366             -200               0             -200               0
1.24422              -0.06487956       -13.45896        -63.38097        79.99702             -200               0             -200               0
1.25083              -0.06688567       -13.57499        -62.87185        75.74486             -200               0             -200               0
1.25743              -0.06893495       -13.69195        -62.39333        71.39156             -200               0             -200               0
1.26403              -0.07102371       -13.80988        -61.94395         66.9576             -200               0             -200               0
1.27063              -0.07315299       -13.92882        -61.52231        62.46032             -200               0             -200               0
1.27723              -0.07532171       -14.04879        -61.12707        57.91458             -200               0             -200               0
1.28383              -0.07752811       -14.16984        -60.75701         53.3333             -200               0             -200               0
1.29043              -0.07977402       -14.29201        -60.41099        48.72784             -200               0             -200               0
1.29703              -0.08206105       -14.41535        -60.08796        44.10831             -200               0             -200               0
1.30363              -0.08439085       -14.53989        -59.78692        39.48388             -200               0             -200               0
1.31023              -0.08676394       -14.66569        -59.50697        34.86295             -200               0             -200               0
1.31683              -0.08918578       -14.79279        -59.24724        30.25332             -200               0             -200               0
1.32343              -0.09165981       -14.92124        -59.00691        25.66237             -200               0             -200               0
1.33003              -0.09418876       -15.05108        -58.78519        21.09713             -200               0             -200               0
1.33663              -0.09678081       -15.18235        -58.58133        16.56444             -200               0             -200               0
1.34323              -0.09943802       -15.31508        -58.39458        12.07094             -200               0             -200               0
1.34984               -0.1021701       -15.44933        -58.22418        7.623202             -200               0             -200               0
1.35644                -0.104982       -15.58511        -58.06937        3.227768             -200               0             -200               0
1.36304               -0.1078818       -15.72245        -57.92936       -1.108842             -200               0             -200               0
1.36964               -0.1108741       -15.86139         -57.8033       -5.380097             -200               0             -200               0
1.37624               -0.1139682       -16.00193        -57.69031       -9.579454             -200               0             -200               0
1.38284               -0.1171716        -16.1441        -57.58941       -13.70038             -200               0             -200               0
1.38944               -0.1204881        -16.2879        -57.49956        -17.7364             -200               0             -200               0
1.39604                -0.123928       -16.43335        -57.41959       -21.68114             -200               0             -200               0
1.40264                -0.127496       -16.58044        -57.34822       -25.52847             -200               0             -200               0
1.40924               -0.1311976       -16.72918        -57.28401       -29.27256             -200               0             -200               0
1.41584               -0.1350392       -16.87957        -57.22539       -32.90815             -200               0             -200               0
1.42244               -0.1390251       -17.03161        -57.17063       -36.43066             -200               0             -200               0
1.42904               -0.1431608       -17.18529        -57.11781       -39.83651             -200               0             -200               0
1.43564               -0.1474467       -17.34062        -57.06488       -43.12335             -200               0             -200               0
1.44224               -0.1518892       -17.49759        -57.00963       -46.29041             -200               0             -200               0
1.44884               -0.1564891       -17.65621        -56.94974       -49.33881             -200               0             -200               0
1.45545               -0.1612486       -17.81647         -56.8828       -52.27183             -200               0             -200               0
1.46205               -0.1661693       -17.97838         -56.8064       -55.09521             -200               0             -200               0
1.46865               -0.1712515       -18.14196        -56.71819       -57.81731             -200               0             -200               0
1.47525               -0.1764965       -18.30722        -56.61596       -60.44918             -200               0             -200               0
1.48185                -0.181905       -18.47418        -56.49774       -63.00446             -200               0             -200               0
1.48845               -0.1874773       -18.64287        -56.36188       -65.49911             -200               0             -200               0
1.49505               -0.1932131       -18.81331        -56.20715       -67.95098             -200               0             -200               0
1.50165               -0.1991145       -18.98555        -56.03282       -70.37919             -200               0             -200               0
1.50825                -0.205182       -19.15962        -55.83863       -72.80345             -200               0             -200               0
1.51485               -0.2114166       -19.33558        -55.62489       -75.24326             -200               0             -200               0
1.52145               -0.2178213       -19.51347        -55.39238       -77.71717             -200               0             -200               0
1.52805               -0.2243992       -19.69336        -55.14235       -80.24213             -200               0             -200               0
1.53465               -0.2311533        -19.8753        -54.87639       -82.83294             -200               0             -200               0
1.54125               -0.2380885       -20.05936         -54.5964       -85.50193             -200               0             -200               0
1.54785               -0.2452107        -20.2456        -54.30446       -88.25874             -200               0             -200               0
1.55446               -0.2525264        -20.4341        -54.00272       -91.11036             -200               0             -200               0
1.56106               -0.2600429        -20.6249        -53.69338        -94.0612             -200               0             -200               0
1.56766               -0.2677696       -20.81809        -53.37855       -97.11335             -200               0             -200               0
1.57426                -0.275715       -21.01373        -53.06025       -100.2669             -200               0             -200               0
1.58086                 -0.28389       -21.21187        -52.74035       -103.5201             -200               0             -200               0
1.58746               -0.2923066       -21.41258        -52.42057       -106.8699             -200               0             -200               0
1.59406               -0.3009761       -21.61592        -52.10242       -110.3122             -200               0             -200               0
1.60066               -0.3099119       -21.82193        -51.78725       -113.8419             -200               0             -200               0
1.60726               -0.3191267       -22.03065        -51.47622       -117.4535             -200               0             -200               0
1.61386               -0.3286341       -22.24215        -51.17034        -121.141             -200               0             -200               0
1.62046               -0.3384488       -22.45643        -50.87044       -124.8981             -200               0             -200               0
1.62706               -0.3485836       -22.67355        -50.57723       -128.7185             -200               0             -200               0
1.63366               -0.3590527       -22.89352        -50.29127        -132.596             -200               0             -200               0
1.64026               -0.3698697       -23.11636        -50.01302       -136.5241             -200               0             -200               0
1.64686               -0.3810483        -23.3421        -49.74283       -140.4968             -200               0             -200               0
1.65347               -0.3926007       -23.57075        -49.48096       -144.5079             -200               0             -200               0
1.66007               -0.4045394       -23.80232        -49.22757       -148.5517             -200               0             -200               0
1.66667               -0.4168761       -24.03682        -48.98277       -152.6224             -200               0             -200               0
1.67327               -0.4296221       -24.27428         -48.7466       -156.7146             -200               0             -200               0
1.67987               -0.4427873       -24.51469        -48.51902       -160.8228             -200               0             -200               0
1.68647               -0.4563807       -24.75808        -48.29996        -164.942             -200               0             -200               0
1.69307                -0.470414       -25.00448        -48.08928       -169.0673             -200               0             -200               0
1.69967               -0.4848919       -25.25389        -47.88679       -173.1937             -200               0             -200               0
1.70627               -0.4998265       -25.50636        -47.69228       -177.3168             -200               0             -200               0
1.71287               -0.5152234       -25.76192        -47.50545         178.568             -200               0             -200               0
1.71947               -0.5310926       -26.02063        -47.32599         174.465             -200               0             -200               0
1.72607               -0.5474399       -26.28253        -47.15353        170.3782             -200               0             -200               0
1.73267               -0.5642745        -26.5477        -46.98766        166.3115             -200               0             -200               0
1.73927               -0.5816059        -26.8162        -46.82791        162.2687             -200               0             -200               0
1.74587               -0.5994421       -27.08812        -46.67378        158.2532             -200               0             -200               0
1.75248               -0.6177963       -27.36355        -46.52471        154.2684             -200               0             -200               0
1.75908               -0.6366785       -27.64261         -46.3801        150.3171             -200               0             -200               0
1.76568               -0.6561024       -27.92539        -46.23929        146.4022             -200               0             -200               0
1.77228               -0.6760843       -28.21203        -46.10158        142.5257             -200               0             -200               0
1.77888                 -0.69664       -28.50265        -45.96623        138.6898             -200               0             -200               0
1.78548                -0.717789       -28.79738        -45.83245        134.8958             -200               0             -200               0
1.79208               -0.7395526       -29.09636         -45.6994        131.1448             -200               0             -200               0
1.79868               -0.7619546       -29.39974        -45.56624        127.4372             -200               0             -200               0
1.80528               -0.7850209       -29.70765        -45.43208        123.7727             -200               0             -200               0
1.81188               -0.8087812       -30.02025        -45.29602        120.1505             -200               0             -200               0
1.81848               -0.8332648       -30.33767        -45.15716        116.5691             -200               0             -200               0
1.82508               -0.8585066       -30.66005        -45.01463        113.0263             -200               0             -200               0
1.83168               -0.8845427       -30.98755        -44.86755        109.5189             -200               0             -200               0
1.83828                -0.911411       -31.32027        -44.71512        106.0434             -200               0             -200               0
1.84488               -0.9391528       -31.65835         -44.5566        102.5952             -200               0             -200               0
1.85149               -0.9678099       -32.00191         -44.3913        99.16926             -200               0             -200               0
1.85809               -0.9974285       -32.35106        -44.21866        95.75989             -200               0             -200               0
1.86469                -1.028053        -32.7059        -44.03822        92.36089             -200               0             -200               0
1.87129                -1.059733       -33.06652        -43.84963        88.96573             -200               0             -200               0
1.87789                -1.092518         -33.433        -43.65269        85.56757             -200               0             -200               0
1.88449                -1.126458       -33.80543        -43.44732         82.1595             -200               0             -200               0
1.89109                -1.161606       -34.18387        -43.23358        78.73465             -200               0             -200               0
1.89769                -1.198015       -34.56839        -43.01169        75.28629             -200               0             -200               0
1.90429                -1.235738       -34.95904        -42.78195        71.80801             -200               0             -200               0
1.91089                -1.274831       -35.35588         -42.5448        68.29386             -200               0             -200               0
1.91749                 -1.31535       -35.75896        -42.30077        64.73834             -200               0             -200               0
1.92409                -1.357352       -36.16834        -42.05048        61.13661             -200               0             -200               0
1.93069                -1.400894       -36.58406        -41.79462        57.48444             -200               0             -200               0
1.93729                -1.446036        -37.0062         -41.5339        53.77827             -200               0             -200               0
1.94389                -1.492841       -37.43479         -41.2691        50.01523             -200               0             -200               0
1.9505                 -1.541368       -37.86993        -41.00098        46.19311             -200               0             -200               0
1.9571                 -1.591685       -38.31168        -40.73032        42.31033             -200               0             -200               0
1.9637                 -1.643859       -38.76013        -40.45789        38.36592             -200               0             -200               0
1.9703                 -1.697963       -39.21538        -40.18443        34.35941             -200               0             -200               0
1.9769                 -1.754069       -39.67754        -39.91065        30.29086             -200               0             -200               0
1.9835                 -1.812258       -40.14673        -39.63723        26.16072             -200               0             -200               0
1.9901                 -1.872615       -40.62309         -39.3648        21.96982             -200               0             -200               0
1.9967                  -1.93523       -41.10675        -39.09396         17.7193             -200               0             -200               0
2.0033                   -2.0002       -41.59788        -38.82526        13.41056             -200               0             -200               0
2.0099                  -2.06763       -42.09663        -38.55919        9.045178             -200               0             -200               0
2.0165                 -2.137633       -42.60318        -38.29621        4.624928             -200               0             -200               0
2.0231                  -2.21033       -43.11771        -38.03674       0.1516766             -200               0             -200               0
2.0297                 -2.285854       -43.64039        -37.78115       -4.372614             -200               0             -200               0
2.0363                 -2.364347       -44.17137        -37.52977       -8.945931             -200               0             -200               0
2.0429                 -2.445964       -44.71084        -37.28291       -13.56623             -200               0             -200               0
2.0495                  -2.53087       -45.25894        -37.04082       -18.23147             -200               0             -200               0
2.05611                -2.619246       -45.81578        -36.80374        -22.9396             -200               0             -200               0
2.06271                -2.711286        -46.3815        -36.57187       -27.68863             -200               0             -200               0
2.06931                  -2.8072       -46.95613        -36.34538       -32.47655             -200               0             -200               0
2.07591                 -2.90721       -47.53973        -36.12444       -37.30145             -200               0             -200               0
2.08251                -3.011555       -48.13228        -35.90918       -42.16143             -200               0             -200               0
2.08911                -3.120497        -48.7337         -35.6997       -47.05469             -200               0             -200               0
2.09571                -3.234307       -49.34388        -35.49611       -51.97944             -200               0             -200               0
2.10231                -3.353282       -49.96259        -35.29849         -56.934             -200               0             -200               0
2.10891                -3.477732       -50.58956        -35.10691        -61.9167             -200               0             -200               0
2.11551                -3.607992       -51.22441        -34.92142       -66.92598             -200               0             -200               0
2.12211                -3.744417       -51.86665        -34.74207       -71.96031             -200               0             -200               0
2.12871                -3.887381        -52.5157        -34.56891       -77.01823             -200               0             -200               0
2.13531                -4.037286       -53.17084        -34.40195       -82.09834             -200               0             -200               0
2.14191                -4.194558        -53.8312        -34.24121        -87.1993             -200               0             -200               0
2.14851                -4.359644       -54.49579        -34.08673       -92.31982             -200               0             -200               0
2.15512                -4.533028       -55.16344        -33.93851       -97.45865             -200               0             -200               0
2.16172                -4.715217       -55.83276        -33.79655       -102.6146             -200               0             -200               0
2.16832                -4.906754        -56.5022        -33.66086       -107.7865             -200               0             -200               0
2.17492                -5.108216       -57.16995        -33.53145       -112.9734             -200               0             -200               0
2.18152                -5.320222       -57.83394         -33.4083        -118.174             -200               0             -200               0
2.18812                -5.543431       -58.49182        -33.29142       -123.3875             -200               0             -200               0
2.19472                -5.778552       -59.14089        -33.18079       -128.6128             -200               0             -200               0
2.20132                -6.026342       -59.77806        -33.07642       -133.8489             -200               0             -200               0
2.20792                -6.287624       -60.39984         -32.9783        -139.095             -200               0             -200               0
2.21452                -6.563282       -61.00217        -32.88641       -144.3502             -200               0             -200               0
2.22112                -6.854275       -61.58044        -32.80075       -149.6136             -200               0             -200               0
2.22772                -7.161645       -62.12928        -32.72131       -154.8844             -200               0             -200               0
2.23432                -7.486529       -62.64248        -32.64808       -160.1618             -200               0             -200               0
2.24092                -7.830167       -63.11285        -32.58105       -165.4449             -200               0             -200               0
2.24752                 -8.19392        -63.5319        -32.52021        -170.733             -200               0             -200               0
2.25413                -8.579279       -63.88965        -32.46556       -176.0253             -200               0             -200               0
2.26073                -8.987883       -64.17426        -32.41709        178.6789             -200               0             -200               0
2.26733                -9.421529       -64.37148        -32.37478        173.3803             -200               0             -200               0
2.27393                -9.882185        -64.4642        -32.33864        168.0798             -200               0             -200               0
2.28053                -10.37199       -64.43153        -32.30867        162.7779             -200               0             -200               0
2.28713                -10.89327        -64.2478        -32.28484        157.4754             -200               0             -200               0
2.29373                -11.44846       -63.88118        -32.26717         152.173             -200               0             -200               0