! TOUCHSTONE file generated by CST MICROWAVE STUDIO
! Date and time: Tue Mar 18 20:31:35 2025
! Project name: hairline.cst
! Parameters = {B=12.5; D=160; F=15; Feed=2.85625; Fracture=1; L=100; M=30; R=0.384908; S=1.5; Theta=0; length=57.125; wave=114.25}
! Header version: 2024
! Port assignment regex: !\s*Touchstone port\s*([0-9]+)\s*=\s*(CST MWS port|CST DES external port|CST DES block port)\s*(.+)\s* \(\"(.*)\"\)(\s*mode\s*([0-9]+))?.*
! Touchstone port assignment:
! Touchstone port 1 = CST MWS port 1 ("")
! Touchstone port 2 = CST MWS port 2 ("")
# GHz S DB R 50
1                    -0.02108888       -9.710111        -67.10662        179.1046             -200               0             -200               0
1.00658                -0.021763       -9.795677        -67.09478          173.76             -200               0             -200               0
1.01316              -0.02242971       -9.881802        -67.11621        168.5272             -200               0             -200               0
1.01974               -0.0230887       -9.968525        -67.17162         163.418             -200               0             -200               0
1.02632              -0.02374168       -10.05588        -67.26189        158.4471             -200               0             -200               0
1.03289              -0.02439089       -10.14391          -67.388        153.6324             -200               0             -200               0
1.03947              -0.02503803       -10.23265        -67.55106        148.9963             -200               0             -200               0
1.04605              -0.02568753       -10.32214        -67.75218        144.5663             -200               0             -200               0
1.05263              -0.02634227       -10.41239         -67.9924        140.3765             -200               0             -200               0
1.05921              -0.02700833       -10.50345         -68.2725        136.4693             -200               0             -200               0
1.06579              -0.02768927       -10.59532        -68.59269        132.8971             -200               0             -200               0
1.07237              -0.02839141       -10.68804        -68.95217        129.7248             -200               0             -200               0
1.07895              -0.02911863       -10.78161        -69.34833        127.0319             -200               0             -200               0
1.08553              -0.02987853       -10.87604        -69.77559        124.9137             -200               0             -200               0
1.09211              -0.03067521       -10.97133        -70.22369        123.4804             -200               0             -200               0
1.09868              -0.03151405       -11.06748        -70.67536        122.8504             -200               0             -200               0
1.10526              -0.03240045       -11.16448        -71.10367        123.1322             -200               0             -200               0
1.11184              -0.03333896       -11.26233        -71.47018        124.3906             -200               0             -200               0
1.11842              -0.03433377         -11.361        -71.72624         126.594             -200               0             -200               0
1.125                -0.03538756       -11.46048        -71.82056         129.561             -200               0             -200               0
1.13158              -0.03650212       -11.56074        -71.71367        132.9436             -200               0             -200               0
1.13816              -0.03768122       -11.66177        -71.39308        136.2869             -200               0             -200               0
1.14474              -0.03892416       -11.76353        -70.87883        139.1529             -200               0             -200               0
1.15132              -0.04023122       -11.86601        -70.21468        141.2328             -200               0             -200               0
1.15789              -0.04160254       -11.96918        -69.45215        142.3867             -200               0             -200               0
1.16447               -0.0430353       -12.07303        -68.63752        142.6129             -200               0             -200               0
1.17105              -0.04452788       -12.17754        -67.80608        141.9918             -200               0             -200               0
1.17763              -0.04607713       -12.28269        -66.98185        140.6376             -200               0             -200               0
1.18421              -0.04767866       -12.38848        -66.17986        138.6683             -200               0             -200               0
1.19079              -0.04932951        -12.4949        -65.40872        136.1918             -200               0             -200               0
1.19737              -0.05102481       -12.60197        -64.67284        133.3003             -200               0             -200               0
1.20395              -0.05275961       -12.70968          -63.974        130.0706             -200               0             -200               0
1.21053              -0.05452968       -12.81806        -63.31235        126.5657             -200               0             -200               0
1.21711              -0.05633003       -12.92712        -62.68715        122.8368             -200               0             -200               0
1.22368              -0.05815708        -13.0369        -62.09715        118.9255             -200               0             -200               0
1.23026              -0.06000633       -13.14743        -61.54088        114.8661             -200               0             -200               0
1.23684              -0.06187524       -13.25875        -61.01676        110.6867             -200               0             -200               0
1.24342              -0.06376054        -13.3709        -60.52325        106.4108             -200               0             -200               0
1.25                 -0.06566083       -13.48394        -60.05883        102.0581             -200               0             -200               0
1.25658              -0.06757562       -13.59792        -59.62211        97.64512             -200               0             -200               0
1.26316              -0.06950477        -13.7129        -59.21174        93.18634             -200               0             -200               0
1.26974              -0.07144921       -13.82892        -58.82651        88.69419             -200               0             -200               0
1.27632              -0.07341132       -13.94605        -58.46528        84.17968             -200               0             -200               0
1.28289              -0.07539494       -14.06434          -58.127         79.6526             -200               0             -200               0
1.28947              -0.07740372       -14.18384         -57.8107        75.12188             -200               0             -200               0
1.29605              -0.07944265       -14.30461        -57.51546         70.5957             -200               0             -200               0
1.30263              -0.08151865       -14.42669        -57.24043        66.08169             -200               0             -200               0
1.30921              -0.08363701       -14.55012        -56.98482        61.58707             -200               0             -200               0
1.31579              -0.08580566       -14.67494        -56.74783        57.11876             -200               0             -200               0
1.32237              -0.08803328       -14.80117        -56.52873        52.68349             -200               0             -200               0
1.32895              -0.09032712       -14.92885        -56.32676        48.28781             -200               0             -200               0
1.33553              -0.09269403       -15.05799        -56.14121        43.93822             -200               0             -200               0
1.34211              -0.09514325       -15.18859         -55.9713        39.64122             -200               0             -200               0
1.34868              -0.09768307       -15.32067        -55.81625        35.40329             -200               0             -200               0
1.35526               -0.1003191       -15.45422        -55.67526        31.23092             -200               0             -200               0
1.36184               -0.1030591       -15.58923        -55.54743        27.13066             -200               0             -200               0
1.36842               -0.1059075       -15.72568        -55.43182        23.10905             -200               0             -200               0
1.375                 -0.1088707       -15.86357        -55.32738        19.17259             -200               0             -200               0
1.38158               -0.1119519       -16.00288        -55.23298        15.32771             -200               0             -200               0
1.38816                -0.115154       -16.14358        -55.14733        11.58063             -200               0             -200               0
1.39474               -0.1184792       -16.28566        -55.06903        7.937247             -200               0             -200               0
1.40132               -0.1219278        -16.4291        -54.99653        4.402989             -200               0             -200               0
1.40789               -0.1254996       -16.57389        -54.92809        0.982586             -200               0             -200               0
1.41447               -0.1291929          -16.72        -54.86182       -2.320168             -200               0             -200               0
1.42105               -0.1330051       -16.86745        -54.79568       -5.502697             -200               0             -200               0
1.42763               -0.1369335       -17.01622        -54.72745       -8.563951             -200               0             -200               0
1.43421               -0.1409744       -17.16633         -54.6548       -11.50474             -200               0             -200               0
1.44079               -0.1451229       -17.31778        -54.57533       -14.32803             -200               0             -200               0
1.44737               -0.1493748       -17.47062        -54.48658       -17.03923             -200               0             -200               0
1.45395               -0.1537255       -17.62486        -54.38619       -19.64638             -200               0             -200               0
1.46053               -0.1581701       -17.78057        -54.27188       -22.16025             -200               0             -200               0
1.46711               -0.1627059       -17.93778        -54.14164       -24.59421             -200               0             -200               0
1.47368               -0.1673269       -18.09657        -53.99374       -26.96406             -200               0             -200               0
1.48026               -0.1720314       -18.25701         -53.8269       -29.28758             -200               0             -200               0
1.48684               -0.1768196       -18.41917        -53.64028       -31.58389             -200               0             -200               0
1.49342               -0.1816898       -18.58315        -53.43359       -33.87279             -200               0             -200               0
1.5                   -0.1866424       -18.74904        -53.20704       -36.17399             -200               0             -200               0
1.50658               -0.1916811       -18.91693        -52.96137       -38.50632             -200               0             -200               0
1.51316               -0.1968098       -19.08693        -52.69779       -40.88701             -200               0             -200               0
1.51974               -0.2020344       -19.25914        -52.41785       -43.33124             -200               0             -200               0
1.52632               -0.2073629       -19.43367        -52.12344       -45.85164             -200               0             -200               0
1.53289                -0.212805       -19.61061        -51.81661        -48.4582             -200               0             -200               0
1.53947                -0.218371       -19.79006        -51.49954       -51.15815             -200               0             -200               0
1.54605               -0.2240743       -19.97212        -51.17441       -53.95617             -200               0             -200               0
1.55263               -0.2299282       -20.15687        -50.84335        -56.8545             -200               0             -200               0
1.55921               -0.2359491       -20.34439        -50.50841       -59.85334             -200               0             -200               0
1.56579               -0.2421523       -20.53475        -50.17145        -62.9511             -200               0             -200               0
1.57237               -0.2485555       -20.72801         -49.8342       -66.14474             -200               0             -200               0
1.57895               -0.2551767       -20.92423        -49.49818       -69.43009             -200               0             -200               0
1.58553               -0.2620337       -21.12343        -49.16474       -72.80215             -200               0             -200               0
1.59211               -0.2691442       -21.32566        -48.83504       -76.25527             -200               0             -200               0
1.59868               -0.2765263       -21.53092        -48.51008       -79.78343             -200               0             -200               0
1.60526               -0.2841973       -21.73924        -48.19068       -83.38035             -200               0             -200               0
1.61184               -0.2921738        -21.9506        -47.87753       -87.03965             -200               0             -200               0
1.61842               -0.3004709       -22.16501        -47.57116       -90.75494             -200               0             -200               0
1.625                  -0.309103       -22.38245        -47.27201       -94.51989             -200               0             -200               0
1.63158                -0.318083       -22.60291        -46.98039       -98.32832             -200               0             -200               0
1.63816               -0.3274232       -22.82637        -46.69653       -102.1742             -200               0             -200               0
1.64474               -0.3371319        -23.0528        -46.42054       -106.0517             -200               0             -200               0
1.65132               -0.3472191       -23.28219         -46.1525       -109.9551             -200               0             -200               0
1.65789               -0.3576903       -23.51453        -45.89238       -113.8791             -200               0             -200               0
1.66447               -0.3685507        -23.7498        -45.64011       -117.8184             -200               0             -200               0
1.67105               -0.3798055       -23.98802        -45.39554       -121.7682             -200               0             -200               0
1.67763               -0.3914559       -24.22918        -45.15848       -125.7236             -200               0             -200               0
1.68421                -0.403504       -24.47331         -44.9287       -129.6801             -200               0             -200               0
1.69079               -0.4159512       -24.72044        -44.70589       -133.6334             -200               0             -200               0
1.69737               -0.4287978       -24.97063        -44.48972       -137.5795             -200               0             -200               0
1.70395               -0.4420439       -25.22394         -44.2798       -141.5146             -200               0             -200               0
1.71053               -0.4556919       -25.48045        -44.07571       -145.4351             -200               0             -200               0
1.71711               -0.4697407       -25.74026        -43.87697       -149.3378             -200               0             -200               0
1.72368               -0.4841956       -26.00349        -43.68309       -153.2196             -200               0             -200               0
1.73026               -0.4990587       -26.27026        -43.49349       -157.0779             -200               0             -200               0
1.73684               -0.5143372       -26.54074        -43.30761       -160.9103             -200               0             -200               0
1.74342               -0.5300381       -26.81507        -43.12481       -164.7149             -200               0             -200               0
1.75                  -0.5461721       -27.09344        -42.94443       -168.4899             -200               0             -200               0
1.75658               -0.5627523       -27.37603         -42.7658       -172.2343             -200               0             -200               0
1.76316               -0.5797964       -27.66304         -42.5882       -175.9473             -200               0             -200               0
1.76974               -0.5973235       -27.95468        -42.41092       -179.6288             -200               0             -200               0
1.77632               -0.6153573       -28.25115        -42.23321        176.7211             -200               0             -200               0
1.78289               -0.6339242       -28.55268        -42.05435        173.1013             -200               0             -200               0
1.78947               -0.6530541       -28.85946         -41.8736        169.5107             -200               0             -200               0
1.79605               -0.6727828       -29.17171        -41.69026        165.9471             -200               0             -200               0
1.80263               -0.6931467       -29.48965        -41.50365         162.408             -200               0             -200               0
1.80921               -0.7141877       -29.81345        -41.31313        158.8904             -200               0             -200               0
1.81579               -0.7359499       -30.14332        -41.11814        155.3907             -200               0             -200               0
1.82237               -0.7584814       -30.47943        -40.91816        151.9047             -200               0             -200               0
1.82895               -0.7818323       -30.82195        -40.71275        148.4281             -200               0             -200               0
1.83553               -0.8060567       -31.17103        -40.50156        144.9559             -200               0             -200               0
1.84211               -0.8312085       -31.52681        -40.28435         141.483             -200               0             -200               0
1.84868               -0.8573464       -31.88942        -40.06095        138.0042             -200               0             -200               0
1.85526               -0.8845299       -32.25896        -39.83131        134.5142             -200               0             -200               0
1.86184               -0.9128198       -32.63553        -39.59547        131.0077             -200               0             -200               0
1.86842               -0.9422786        -33.0192        -39.35359        127.4794             -200               0             -200               0
1.875                  -0.972969       -33.41006         -39.1059        123.9245             -200               0             -200               0
1.88158                -1.004955       -33.80815        -38.85271        120.3383             -200               0             -200               0
1.88816                -1.038303       -34.21352        -38.59442        116.7165             -200               0             -200               0
1.89474                -1.073078       -34.62622         -38.3315        113.0551             -200               0             -200               0
1.90132                -1.109347       -35.04627        -38.06446        109.3509             -200               0             -200               0
1.90789                -1.147177       -35.47372        -37.79384        105.6009             -200               0             -200               0
1.91447                -1.186637       -35.90859        -37.52024        101.8025             -200               0             -200               0
1.92105                -1.227798       -36.35091        -37.24424        97.95401             -200               0             -200               0
1.92763                -1.270729       -36.80071        -36.96646         94.0538             -200               0             -200               0
1.93421                -1.315506       -37.25804        -36.68751         90.1009             -200               0             -200               0
1.94079                -1.362203       -37.72293        -36.40797        86.09471             -200               0             -200               0
1.94737                -1.410902       -38.19544        -36.12842        82.03503             -200               0             -200               0
1.95395                -1.461681       -38.67562        -35.84942          77.922             -200               0             -200               0
1.96053                -1.514633       -39.16354         -35.5715        73.75608             -200               0             -200               0
1.96711                -1.569843       -39.65928        -35.29515        69.53797             -200               0             -200               0
1.97368                -1.627413        -40.1629        -35.02085        65.26864             -200               0             -200               0
1.98026                -1.687446       -40.67449        -34.74903        60.94923             -200               0             -200               0
1.98684                -1.750052       -41.19415        -34.48009        56.58103             -200               0             -200               0
1.99342                -1.815351       -41.72194        -34.21441        52.16546             -200               0             -200               0
2                      -1.883472       -42.25797        -33.95231        47.70407             -200               0             -200               0
2.00658                -1.954551       -42.80228        -33.69411        43.19844             -200               0             -200               0
2.01316                -2.028737       -43.35496        -33.44008        38.65022             -200               0             -200               0
2.01974                -2.106189       -43.91603        -33.19048         34.0611             -200               0             -200               0
2.02632                -2.187077       -44.48551        -32.94552        29.43276             -200               0             -200               0
2.03289                -2.271583       -45.06339        -32.70541        24.76692             -200               0             -200               0
2.03947                -2.359907       -45.64961        -32.47032        20.06525             -200               0             -200               0
2.04605                -2.452256       -46.24407        -32.24042        15.32944             -200               0             -200               0
2.05263                -2.548854       -46.84661        -32.01584        10.56111             -200               0             -200               0
2.05921                -2.649941       -47.45702         -31.7967         5.76189             -200               0             -200               0
2.06579                -2.755768         -48.075         -31.5831       0.9333471             -200               0             -200               0
2.07237                -2.866608       -48.70018        -31.37514       -3.922978             -200               0             -200               0
2.07895                -2.982742       -49.33208        -31.17289       -8.805594             -200               0             -200               0
2.08553                -3.104474       -49.97014        -30.97643       -13.71305             -200               0             -200               0
2.09211                -3.232119       -50.61368         -30.7858       -18.64394             -200               0             -200               0
2.09868                -3.366016       -51.26189        -30.60106       -23.59689             -200               0             -200               0
2.10526                -3.506514       -51.91381        -30.42225        -28.5706             -200               0             -200               0
2.11184                -3.653986       -52.56833         -30.2494       -33.56377             -200               0             -200               0
2.11842                -3.808821        -53.2242        -30.08254       -38.57519             -200               0             -200               0
2.125                  -3.971426       -53.87996        -29.92168       -43.60365             -200               0             -200               0
2.13158                -4.142232       -54.53396        -29.76685       -48.64801             -200               0             -200               0
2.13816                -4.321687        -55.1843        -29.61805       -53.70713             -200               0             -200               0
2.14474                -4.510265       -55.82886        -29.47529       -58.77994             -200               0             -200               0
2.15132                -4.708461       -56.46525        -29.33859       -63.86539             -200               0             -200               0
2.15789                -4.916793       -57.09075        -29.20793       -68.96246             -200               0             -200               0
2.16447                -5.135808        -57.7023        -29.08333       -74.07016             -200               0             -200               0
2.17105                -5.366077       -58.29648        -28.96477       -79.18754             -200               0             -200               0
2.17763                -5.608203       -58.86939        -28.85226       -84.31364             -200               0             -200               0
2.18421                -5.862817       -59.41668         -28.7458       -89.44757             -200               0             -200               0
2.19079                -6.130582       -59.93338        -28.64536       -94.58844             -200               0             -200               0
2.19737                -6.412196       -60.41391        -28.55096       -99.73536             -200               0             -200               0
2.20395                -6.708387       -60.85186        -28.46257       -104.8875             -200               0             -200               0
2.21053                -7.019917          -61.24         -28.3802        -110.044             -200               0             -200               0
2.21711                -7.347581          -61.57        -28.30383       -115.2041             -200               0             -200               0
2.22368                -7.692196       -61.83234        -28.23345       -120.3668             -200               0             -200               0
2.23026                -8.054603         -62.016        -28.16906       -125.5316             -200               0             -200               0
2.23684                -8.435647       -62.10826        -28.11064       -130.6974             -200               0             -200               0
2.24342                -8.836159       -62.09433        -28.05819       -135.8637             -200               0             -200               0
2.25                   -9.256924       -61.95694        -28.01169       -141.0295             -200               0             -200               0
2.25658                -9.698636        -61.6759        -27.97114       -146.1941             -200               0             -200               0
2.26316                -10.16182       -61.22752        -27.93653       -151.3568             -200               0             -200               0
2.26974                -10.64674       -60.58396        -27.90784       -156.5167             -200               0             -200               0
2.27632                -11.15323       -59.71259        -27.88507       -161.6731             -200               0             -200               0
2.28289                -11.68048       -58.57522        -27.86821       -166.8251             -200               0             -200               0
2.28947                -12.22672       -57.12761        -27.85724       -171.9721             -200               0             -200               0