! TOUCHSTONE file generated by CST MICROWAVE STUDIO
! Date and time: Tue Mar 18 20:31:36 2025
! Project name: hairline.cst
! Parameters = {B=12.5; D=160; F=15; Feed=2.85625; Fracture=0.5; L=100; M=50; R=0.384908; S=1.5; Theta=0; length=57.125; wave=114.25}
! Header version: 2024
! Port assignment regex: !\s*Touchstone port\s*([0-9]+)\s*=\s*(CST MWS port|CST DES external port|CST DES block port)\s*(.+)\s* \(\"(.*)\"\)(\s*mode\s*([0-9]+))?.*
! Touchstone port assignment:
! Touchstone port 1 = CST MWS port 1 ("")
! Touchstone port 2 = CST MWS port 2 ("")
# GHz S DB R 50
1                    -0.02000047       -9.718556        -68.38018        162.1352             -200               0             -200               0
1.0066               -0.02077184       -9.805691        -68.31089        156.5628             -200               0             -200               0
1.0132               -0.02156364       -9.893304        -68.27176        151.0838             -200               0             -200               0
1.0198               -0.02237264       -9.981406        -68.26299        145.7055             -200               0             -200               0
1.0264               -0.02319551       -10.07001        -68.28491        140.4371             -200               0             -200               0
1.033                -0.02403306       -10.15914        -68.33799        135.2896             -200               0             -200               0
1.0396               -0.02488338        -10.2488        -68.42278        130.2766             -200               0             -200               0
1.0462               -0.02574397       -10.33902        -68.53988        125.4145             -200               0             -200               0
1.05281              -0.02661534       -10.42983        -68.68993        120.7234             -200               0             -200               0
1.05941              -0.02749696       -10.52124        -68.87352        116.2273             -200               0             -200               0
1.06601              -0.02838928       -10.61329        -69.09109        111.9559             -200               0             -200               0
1.07261               -0.0292911         -10.706        -69.34275        107.9447             -200               0             -200               0
1.07921              -0.03020538        -10.7994        -69.62806         104.237             -200               0             -200               0
1.08581              -0.03113204       -10.89351        -69.94562        100.8847             -200               0             -200               0
1.09241              -0.03207446       -10.98836        -70.29255         97.9495             -200               0             -200               0
1.09901              -0.03303259       -11.08397        -70.66366        95.50306             -200               0             -200               0
1.10561              -0.03401158       -11.18037        -71.05035        93.62543             -200               0             -200               0
1.11221              -0.03501337       -11.27757        -71.43922        92.39983             -200               0             -200               0
1.11881              -0.03604121       -11.37559        -71.81063        91.90136             -200               0             -200               0
1.12541              -0.03709932       -11.47445        -72.13766        92.17696             -200               0             -200               0
1.13201              -0.03818881       -11.57417        -72.38676        93.21633             -200               0             -200               0
1.13861               -0.0393158       -11.67473        -72.52136        94.92038             -200               0             -200               0
1.14521                -0.040481       -11.77617        -72.50923        97.08352             -200               0             -200               0
1.15182              -0.04169069       -11.87847        -72.33161        99.41049             -200               0             -200               0
1.15842              -0.04294463       -11.98164        -71.98966        101.5734             -200               0             -200               0
1.16502              -0.04424824       -12.08568        -71.50401        103.2857             -200               0             -200               0
1.17162              -0.04560142       -12.19059         -70.9077        104.3547             -200               0             -200               0
1.17822               -0.0470086       -12.29636        -70.23702        104.6939             -200               0             -200               0
1.18482              -0.04846874       -12.40298        -69.52463         104.302             -200               0             -200               0
1.19142              -0.04998517       -12.51046        -68.79632        103.2313             -200               0             -200               0
1.19802              -0.05155744       -12.61879        -68.07067        101.5594             -200               0             -200               0
1.20462              -0.05318467       -12.72795        -67.36017        99.37038             -200               0             -200               0
1.21122              -0.05486832       -12.83796        -66.67267        96.74421             -200               0             -200               0
1.21782              -0.05660685       -12.94882        -66.01277        93.75243             -200               0             -200               0
1.22442              -0.05839794       -13.06051        -65.38283        90.45664             -200               0             -200               0
1.23102              -0.06024025       -13.17306         -64.7838        86.90892             -200               0             -200               0
1.23762              -0.06213446       -13.28646        -64.21571        83.15292             -200               0             -200               0
1.24422              -0.06407521       -13.40074        -63.67803        79.22512             -200               0             -200               0
1.25083              -0.06606385       -13.51591        -63.16991        75.15604             -200               0             -200               0
1.25743              -0.06809633       -13.63199        -62.69034        70.97134             -200               0             -200               0
1.26403              -0.07017264       -13.74901        -62.23822         66.6927             -200               0             -200               0
1.27063              -0.07228931       -13.86699        -61.81243        62.33864             -200               0             -200               0
1.27723              -0.07444702       -13.98598        -61.41188        57.92504             -200               0             -200               0
1.28383              -0.07664471         -14.106        -61.03551        53.46574             -200               0             -200               0
1.29043              -0.07888281       -14.22709        -60.68234        48.97288             -200               0             -200               0
1.29703               -0.0811603       -14.34931        -60.35139        44.45725             -200               0             -200               0
1.30363              -0.08347896       -14.47268        -60.04178        39.92856             -200               0             -200               0
1.31023              -0.08583978       -14.59727        -59.75264        35.39567             -200               0             -200               0
1.31683              -0.08824762        -14.7231        -59.48317        30.86675             -200               0             -200               0
1.32343              -0.09070329       -14.85024        -59.23259        26.34942             -200               0             -200               0
1.33003              -0.09321249       -14.97872        -59.00015        21.85091             -200               0             -200               0
1.33663              -0.09577955       -15.10859        -58.78512        17.37815             -200               0             -200               0
1.34323               -0.0984086       -15.23988        -58.58678        12.93781             -200               0             -200               0
1.34984                -0.101106       -15.37264        -58.40439        8.536419             -200               0             -200               0
1.35644               -0.1038773       -15.50691        -58.23723         4.18039             -200               0             -200               0
1.36304               -0.1067314        -15.6427        -58.08453      -0.1239353             -200               0             -200               0
1.36964               -0.1096726       -15.78006        -57.94549        -4.37027             -200               0             -200               0
1.37624               -0.1127105         -15.919        -57.81927       -8.552373             -200               0             -200               0
1.38284               -0.1158499       -16.05955        -57.70495       -12.66406             -200               0             -200               0
1.38944               -0.1190986       -16.20171        -57.60155       -16.69924             -200               0             -200               0
1.39604               -0.1224659        -16.3455          -57.508       -20.65196             -200               0             -200               0
1.40264               -0.1259546       -16.49092        -57.42311       -24.51647             -200               0             -200               0
1.40924               -0.1295747       -16.63799        -57.34558       -28.28738             -200               0             -200               0
1.41584               -0.1333297       -16.78669        -57.27399       -31.95975             -200               0             -200               0
1.42244               -0.1372264       -16.93704        -57.20677       -35.52923             -200               0             -200               0
1.42904               -0.1412669       -17.08902        -57.14222       -38.99236             -200               0             -200               0
1.43564               -0.1454605       -17.24263        -57.07851       -42.34671             -200               0             -200               0
1.44224               -0.1498058       -17.39788        -57.01365       -45.59115             -200               0             -200               0
1.44884               -0.1543083       -17.55475        -56.94558       -48.72614             -200               0             -200               0
1.45545               -0.1589695       -17.71326        -56.87217       -51.75396             -200               0             -200               0
1.46205               -0.1637912        -17.8734        -56.79123       -54.67894             -200               0             -200               0
1.46865               -0.1687756       -18.03518        -56.70063       -57.50765             -200               0             -200               0
1.47525               -0.1739219        -18.1986        -56.59832       -60.24893             -200               0             -200               0
1.48185               -0.1792332        -18.3637        -56.48245       -62.91394             -200               0             -200               0
1.48845                -0.184708       -18.53047        -56.35138       -65.51594             -200               0             -200               0
1.49505               -0.1903489       -18.69896        -56.20384       -68.07001             -200               0             -200               0
1.50165               -0.1961533       -18.86919        -56.03891       -70.59259             -200               0             -200               0
1.50825               -0.2021246        -19.0412        -55.85612       -73.10098             -200               0             -200               0
1.51485               -0.2082615       -19.21502        -55.65543       -75.61268             -200               0             -200               0
1.52145               -0.2145685       -19.39071        -55.43728       -78.14474             -200               0             -200               0
1.52805               -0.2210456       -19.56832         -55.2025       -80.71323             -200               0             -200               0
1.53465               -0.2276951       -19.74791        -54.95229       -83.33264             -200               0             -200               0
1.54125               -0.2345238       -19.92953        -54.68816       -86.01554             -200               0             -200               0
1.54785               -0.2415332       -20.11325        -54.41182       -88.77231             -200               0             -200               0
1.55446                 -0.24873       -20.29913        -54.12514       -91.61101             -200               0             -200               0
1.56106               -0.2561217       -20.48724        -53.83005       -94.53743             -200               0             -200               0
1.56766               -0.2637142       -20.67764         -53.5285       -97.55515             -200               0             -200               0
1.57426               -0.2715174        -20.8704        -53.22235       -100.6658             -200               0             -200               0
1.58086               -0.2795408       -21.06558        -52.91341       -103.8693             -200               0             -200               0
1.58746               -0.2877948       -21.26325        -52.60333       -107.1639             -200               0             -200               0
1.59406               -0.2962889       -21.46346        -52.29363        -110.547             -200               0             -200               0
1.60066               -0.3050371       -21.66627        -51.98568       -114.0146             -200               0             -200               0
1.60726               -0.3140512       -21.87173        -51.68068       -117.5623             -200               0             -200               0
1.61386               -0.3233453       -22.07987         -51.3797       -121.1851             -200               0             -200               0
1.62046               -0.3329319       -22.29075        -51.08362       -124.8775             -200               0             -200               0
1.62706               -0.3428246        -22.5044        -50.79324       -128.6338             -200               0             -200               0
1.63366               -0.3530378       -22.72084        -50.50918       -132.4484             -200               0             -200               0
1.64026               -0.3635852       -22.94011        -50.23197       -136.3152             -200               0             -200               0
1.64686                -0.374479       -23.16222        -49.96204       -140.2287             -200               0             -200               0
1.65347                -0.385734       -23.38719        -49.69971       -144.1829             -200               0             -200               0
1.66007               -0.3973619       -23.61504        -49.44522       -148.1725             -200               0             -200               0
1.66667               -0.4093743       -23.84578        -49.19873       -152.1918             -200               0             -200               0
1.67327               -0.4217832       -24.07942        -48.96034       -156.2355             -200               0             -200               0
1.67987               -0.4345998       -24.31597        -48.73008       -160.2985             -200               0             -200               0
1.68647                -0.447834       -24.55545        -48.50791       -164.3757             -200               0             -200               0
1.69307               -0.4614952       -24.79788        -48.29376       -168.4623             -200               0             -200               0
1.69967               -0.4755917       -25.04327         -48.0875       -172.5535             -200               0             -200               0
1.70627               -0.4901342       -25.29166        -47.88893       -176.6449             -200               0             -200               0
1.71287               -0.5051278       -25.54306        -47.69784         179.268             -200               0             -200               0
1.71947               -0.5205827       -25.79753        -47.51393        175.1894             -200               0             -200               0
1.72607               -0.5365065       -26.05511        -47.33691        171.1233             -200               0             -200               0
1.73267               -0.5529063       -26.31585        -47.16639        167.0736             -200               0             -200               0
1.73927               -0.5697911       -26.57983        -47.00198        163.0441             -200               0             -200               0
1.74587               -0.5871693        -26.8471         -46.8432        159.0382             -200               0             -200               0
1.75248               -0.6050513       -27.11777        -46.68956        155.0591             -200               0             -200               0
1.75908               -0.6234469       -27.39192         -46.5405          151.11             -200               0             -200               0
1.76568               -0.6423687       -27.66965        -46.39542        147.1934             -200               0             -200               0
1.77228               -0.6618296       -27.95109         -46.2537        143.3119             -200               0             -200               0
1.77888               -0.6818458       -28.23634        -46.11462        139.4674             -200               0             -200               0
1.78548               -0.7024333       -28.52554        -45.97748        135.6617             -200               0             -200               0
1.79208               -0.7236123       -28.81881        -45.84149        131.8959             -200               0             -200               0
1.79868               -0.7454034        -29.1163        -45.70587        128.1706             -200               0             -200               0
1.80528               -0.7678302       -29.41814        -45.56977        124.4862             -200               0             -200               0
1.81188               -0.7909197       -29.72447        -45.43236         120.842             -200               0             -200               0
1.81848                  -0.8147       -30.03545        -45.29278        117.2371             -200               0             -200               0
1.82508               -0.8392013        -30.3512        -45.15019        113.6696             -200               0             -200               0
1.83168               -0.8644582       -30.67187        -45.00376        110.1372             -200               0             -200               0
1.83828               -0.8905058       -30.99758        -44.85269        106.6366             -200               0             -200               0
1.84488               -0.9173826       -31.32847        -44.69624        103.1641             -200               0             -200               0
1.85149               -0.9451296       -31.66467        -44.53372        99.71518             -200               0             -200               0
1.85809               -0.9737879       -32.00628        -44.36454        96.28483             -200               0             -200               0
1.86469                -1.003403        -32.3534        -44.18819        92.86745             -200               0             -200               0
1.87129                -1.034019       -32.70615        -44.00429        89.45705             -200               0             -200               0
1.87789                -1.065685       -33.06461        -43.81255        86.04734             -200               0             -200               0
1.88449                 -1.09845       -33.42886        -43.61281        82.63182             -200               0             -200               0
1.89109                -1.132365       -33.79898        -43.40507        79.20394             -200               0             -200               0
1.89769                -1.167478       -34.17504        -43.18941        75.75723             -200               0             -200               0
1.90429                -1.203845       -34.55709        -42.96607         72.2854             -200               0             -200               0
1.91089                -1.241519        -34.9452        -42.73537        68.78252             -200               0             -200               0
1.91749                -1.280552       -35.33941        -42.49777        65.24304             -200               0             -200               0
1.92409                   -1.321       -35.73978        -42.25378        61.66193             -200               0             -200               0
1.93069                -1.362921       -36.14637        -42.00401        58.03474             -200               0             -200               0
1.93729                 -1.40637       -36.55922        -41.74912        54.35762             -200               0             -200               0
1.94389                -1.451407       -36.97839        -41.48981        50.62734             -200               0             -200               0
1.9505                 -1.498093       -37.40395         -41.2268         46.8413             -200               0             -200               0
1.9571                 -1.546489       -37.83596        -40.96083        42.99755             -200               0             -200               0
1.9637                  -1.59666        -38.2745        -40.69265        39.09468             -200               0             -200               0
1.9703                 -1.648673       -38.71967        -40.42296        35.13184             -200               0             -200               0
1.9769                   -1.7026       -39.17154        -40.15248         31.1087             -200               0             -200               0
1.9835                 -1.758514       -39.63025        -39.88187        27.02533             -200               0             -200               0
1.9901                 -1.816494        -40.0959        -39.61179        22.88225             -200               0             -200               0
1.9967                 -1.876626       -40.56863        -39.34282        18.68026             -200               0             -200               0
2.0033                 -1.938999       -41.04859        -39.07553        14.42048             -200               0             -200               0
2.0099                  -2.00371       -41.53593        -38.81044        10.10425             -200               0             -200               0
2.0165                 -2.070864        -42.0308        -38.54802        5.733116             -200               0             -200               0
2.0231                 -2.140572       -42.53338        -38.28872        1.308747             -200               0             -200               0
2.0297                 -2.212955       -43.04383        -38.03291       -3.167057             -200               0             -200               0
2.0363                 -2.288147       -43.56232        -37.78097       -7.692425             -200               0             -200               0
2.0429                 -2.366289       -44.08902         -37.5332       -12.26543             -200               0             -200               0
2.0495                 -2.447533       -44.62407        -37.28989       -16.88413             -200               0             -200               0
2.05611                -2.532048       -45.16762         -37.0513       -21.54656             -200               0             -200               0
2.06271                -2.620011       -45.71979        -36.81765       -26.25076             -200               0             -200               0
2.06931                -2.711614       -46.28065        -36.58913       -30.99481             -200               0             -200               0
2.07591                -2.807066       -46.85028        -36.36593       -35.77681             -200               0             -200               0
2.08251                 -2.90659       -47.42869        -36.14818       -40.59492             -200               0             -200               0
2.08911                -3.010421       -48.01586        -35.93602       -45.44731             -200               0             -200               0
2.09571                -3.118818       -48.61168        -35.72956       -50.33224             -200               0             -200               0
2.10231                -3.232051         -49.216         -35.5289         -55.248             -200               0             -200               0
2.10891                -3.350412       -49.82862        -35.33411       -60.19295             -200               0             -200               0
2.11551                -3.474209       -50.44921        -35.14527       -65.16549             -200               0             -200               0
2.12211                -3.603771       -51.07737        -34.96244       -70.16411             -200               0             -200               0
2.12871                -3.739448        -51.7126        -34.78566       -75.18733             -200               0             -200               0
2.13531                -3.881612       -52.35429        -34.61496       -80.23373             -200               0             -200               0
2.14191                -4.030655       -53.00169        -34.45039       -85.30196             -200               0             -200               0
2.14851                -4.186995       -53.65391        -34.29197        -90.3907             -200               0             -200               0
2.15512                -4.351075       -54.30993         -34.1397        -95.4987             -200               0             -200               0
2.16172                -4.523366       -54.96853        -33.99362       -100.6247             -200               0             -200               0
2.16832                -4.704364       -55.62831        -33.85372       -105.7677             -200               0             -200               0
2.17492                -4.894604       -56.28769        -33.72002       -110.9264             -200               0             -200               0
2.18152                -5.094648       -56.94482        -33.59251       -116.0998             -200               0             -200               0
2.18812                -5.305098       -57.59761        -33.47119       -121.2869             -200               0             -200               0
2.19472                -5.526598       -58.24367        -33.35607       -126.4866             -200               0             -200               0
2.20132                -5.759835       -58.88027        -33.24714        -131.698             -200               0             -200               0
2.20792                -6.005546        -59.5043         -33.1444       -136.9202             -200               0             -200               0
2.21452                -6.264526       -60.11222        -33.04784       -142.1522             -200               0             -200               0
2.22112                -6.537631       -60.69996        -32.95745       -147.3933             -200               0             -200               0
2.22772                -6.825783       -61.26287        -32.87322       -152.6424             -200               0             -200               0
2.23432                -7.129987       -61.79558        -32.79516       -157.8989             -200               0             -200               0
2.24092                -7.451331       -62.29188        -32.72325       -163.1619             -200               0             -200               0
2.24752                -7.791002       -62.74457        -32.65748       -168.4306             -200               0             -200               0
2.25413                -8.150293       -63.14521        -32.59785       -173.7043             -200               0             -200               0
2.26073                 -8.53062       -63.48386        -32.54435       -178.9821             -200               0             -200               0
2.26733                -8.933528       -63.74878        -32.49698        175.7366             -200               0             -200               0
2.27393                -9.360703       -63.92592        -32.45573        170.4526             -200               0             -200               0
2.28053                -9.813981       -63.99843         -32.4206        165.1665             -200               0             -200               0
2.28713                -10.29534       -63.94579        -32.39158        159.8792             -200               0             -200               0
2.29373                 -10.8069       -63.74301        -32.36867        154.5912             -200               0             -200               0