! TOUCHSTONE file generated by CST MICROWAVE STUDIO
! Date and time: Tue Mar 18 20:31:40 2025
! Project name: hairline.cst
! Parameters = {B=12.5; D=160; F=15; Feed=2.85625; Fracture=0.5; L=100; M=30; R=0.384908; S=1.5; Theta=90; length=57.125; wave=114.25}
! Header version: 2024
! Port assignment regex: !\s*Touchstone port\s*([0-9]+)\s*=\s*(CST MWS port|CST DES external port|CST DES block port)\s*(.+)\s* \(\"(.*)\"\)(\s*mode\s*([0-9]+))?.*
! Touchstone port assignment:
! Touchstone port 1 = CST MWS port 1 ("")
! Touchstone port 2 = CST MWS port 2 ("")
# GHz S DB R 50
1                    -0.02159571       -9.743555        -66.13615        173.5675             -200               0             -200               0
1.00658              -0.02222599       -9.829167        -66.18506        167.7738             -200               0             -200               0
1.01316              -0.02283918       -9.915402        -66.27094        162.0856             -200               0             -200               0
1.01974              -0.02343821       -10.00231        -66.39552        156.5128             -200               0             -200               0
1.02632              -0.02402465       -10.08994        -66.56086        151.0684             -200               0             -200               0
1.03289              -0.02460468       -10.17833        -66.76941        145.7692             -200               0             -200               0
1.03947              -0.02518149       -10.26751         -67.0241        140.6372             -200               0             -200               0
1.04605              -0.02576144       -10.35754        -67.32832        135.7007             -200               0             -200               0
1.05263              -0.02635007       -10.44842        -67.68601        130.9972             -200               0             -200               0
1.05921               -0.0269546       -10.54019        -68.10162        126.5762             -200               0             -200               0
1.06579              -0.02758188       -10.63286        -68.58003        122.5037             -200               0             -200               0
1.07237              -0.02823844       -10.72644        -69.12625        118.8693             -200               0             -200               0
1.07895              -0.02893146       -10.82094         -69.7447        115.7953             -200               0             -200               0
1.08553              -0.02966845       -10.91634        -70.43764          113.45             -200               0             -200               0
1.09211               -0.0304559       -11.01264        -71.20191        112.0636             -200               0             -200               0
1.09868              -0.03129752       -11.10982        -72.02231        111.9433             -200               0             -200               0
1.10526              -0.03220071       -11.20786        -72.85977        113.4676             -200               0             -200               0
1.11184              -0.03316895       -11.30674        -73.63342        117.0117             -200               0             -200               0
1.11842               -0.0342062       -11.40642        -74.20682        122.7221             -200               0             -200               0
1.125                -0.03531309       -11.50687        -74.41089        130.1382             -200               0             -200               0
1.13158              -0.03649373       -11.60806        -74.13312        138.0212             -200               0             -200               0
1.13816              -0.03774564       -11.70995        -73.40655        144.8802             -200               0             -200               0
1.14474              -0.03906981       -11.81253        -72.38137        149.7866             -200               0             -200               0
1.15132              -0.04046321       -11.91574        -71.21974        152.5829             -200               0             -200               0
1.15789              -0.04192359       -12.01957        -70.03403         153.553             -200               0             -200               0
1.16447              -0.04344693         -12.124         -68.8849        153.0908             -200               0             -200               0
1.17105              -0.04502823         -12.229        -67.79925        151.5487             -200               0             -200               0
1.17763              -0.04666356       -12.33459        -66.78586        149.2013             -200               0             -200               0
1.18421              -0.04834534       -12.44073        -65.84482        146.2515             -200               0             -200               0
1.19079               -0.0500692       -12.54746        -64.97243        142.8475             -200               0             -200               0
1.19737              -0.05182794       -12.65477        -64.16365        139.0979             -200               0             -200               0
1.20395              -0.05361613       -12.76269        -63.41319        135.0828             -200               0             -200               0
1.21053              -0.05542816       -12.87125        -62.71604        130.8625             -200               0             -200               0
1.21711              -0.05725791       -12.98048        -62.06766        126.4828             -200               0             -200               0
1.22368              -0.05910074       -13.09043        -61.46401        121.9793             -200               0             -200               0
1.23026              -0.06095371       -13.20115        -60.90153        117.3799             -200               0             -200               0
1.23684              -0.06281371        -13.3127        -60.37713        112.7072             -200               0             -200               0
1.24342              -0.06467853       -13.42512         -59.8881        107.9793             -200               0             -200               0
1.25                 -0.06654773        -13.5385        -59.43205        103.2115             -200               0             -200               0
1.25658              -0.06842235       -13.65289        -59.00691        98.41655             -200               0             -200               0
1.26316              -0.07030314       -13.76835        -58.61086        93.60543             -200               0             -200               0
1.26974              -0.07219408       -13.88496        -58.24228        88.78777             -200               0             -200               0
1.27632              -0.07409896       -14.00277        -57.89973        83.97217             -200               0             -200               0
1.28289              -0.07602408       -14.12184        -57.58195        79.16644             -200               0             -200               0
1.28947              -0.07797595       -14.24224        -57.28778        74.37784             -200               0             -200               0
1.29605              -0.07996136         -14.364        -57.01618        69.61319             -200               0             -200               0
1.30263              -0.08198868       -14.48717         -56.7662        64.87906             -200               0             -200               0
1.30921              -0.08406736       -14.61179        -56.53694        60.18188             -200               0             -200               0
1.31579              -0.08620584       -14.73788        -56.32759        55.52798             -200               0             -200               0
1.32237              -0.08841395       -14.86546        -56.13733        50.92372             -200               0             -200               0
1.32895              -0.09070144       -14.99455         -55.9654        46.37556             -200               0             -200               0
1.33553               -0.0930762       -15.12514        -55.81101        41.89007             -200               0             -200               0
1.34211              -0.09554836       -15.25724        -55.67337        37.47401             -200               0             -200               0
1.34868               -0.0981246       -15.39083        -55.55166        33.13433             -200               0             -200               0
1.35526               -0.1008139       -15.52589        -55.44499        28.87822             -200               0             -200               0
1.36184               -0.1036207       -15.66241         -55.3524        24.71306             -200               0             -200               0
1.36842               -0.1065494       -15.80035        -55.27283        20.64643             -200               0             -200               0
1.375                 -0.1096054       -15.93969        -55.20511        16.68602             -200               0             -200               0
1.38158               -0.1127902       -16.08039        -55.14789        12.83956             -200               0             -200               0
1.38816               -0.1161048       -16.22244        -55.09968         9.11466             -200               0             -200               0
1.39474               -0.1195502        -16.3658        -55.05876        5.518621             -200               0             -200               0
1.40132               -0.1231236       -16.51046         -55.0232        2.058195             -200               0             -200               0
1.40789               -0.1268222       -16.65638        -54.99082       -1.260752             -200               0             -200               0
1.41447               -0.1306431       -16.80357         -54.9592       -4.433627             -200               0             -200               0
1.42105               -0.1345815       -16.95201        -54.92567       -7.457569             -200               0             -200               0
1.42763               -0.1386317       -17.10172        -54.88733       -10.33194             -200               0             -200               0
1.43421               -0.1427878       -17.25272        -54.84112       -13.05887             -200               0             -200               0
1.44079               -0.1470436       -17.40502        -54.78386       -15.64374             -200               0             -200               0
1.44737               -0.1513926       -17.55867         -54.7124       -18.09557             -200               0             -200               0
1.45395               -0.1558302       -17.71371        -54.62367       -20.42728             -200               0             -200               0
1.46053               -0.1603501       -17.87021        -54.51489       -22.65572             -200               0             -200               0
1.46711               -0.1649472       -18.02824        -54.38372       -24.80134             -200               0             -200               0
1.47368               -0.1696193       -18.18787        -54.22835       -26.88762             -200               0             -200               0
1.48026               -0.1743625       -18.34919        -54.04768       -28.94015             -200               0             -200               0
1.48684               -0.1791772       -18.51231        -53.84135       -30.98555             -200               0             -200               0
1.49342               -0.1840639       -18.67733        -53.60976       -33.05017             -200               0             -200               0
1.5                   -0.1890253       -18.84435        -53.35406       -35.15892             -200               0             -200               0
1.50658               -0.1940652       -19.01348        -53.07603        -37.3342             -200               0             -200               0
1.51316               -0.1991909       -19.18484        -52.77797       -39.59511             -200               0             -200               0
1.51974               -0.2044101       -19.35854        -52.46253       -41.95697             -200               0             -200               0
1.52632               -0.2097335       -19.53469        -52.13258       -44.43112             -200               0             -200               0
1.53289               -0.2151725       -19.71338        -51.79105       -47.02506             -200               0             -200               0
1.53947                -0.220742       -19.89473        -51.44082       -49.74274             -200               0             -200               0
1.54605               -0.2264573       -20.07882        -51.08463       -52.58499             -200               0             -200               0
1.55263               -0.2323332       -20.26573        -50.72501       -55.55006             -200               0             -200               0
1.55921               -0.2383891       -20.45553        -50.36424       -58.63415             -200               0             -200               0
1.56579               -0.2446427       -20.64828        -50.00435       -61.83185             -200               0             -200               0
1.57237               -0.2511132       -20.84403        -49.64707       -65.13665             -200               0             -200               0
1.57895               -0.2578199       -21.04282         -49.2939       -68.54126             -200               0             -200               0
1.58553                -0.264782       -21.24468         -48.9461       -72.03791             -200               0             -200               0
1.59211               -0.2720181       -21.44961        -48.60469       -75.61863             -200               0             -200               0
1.59868               -0.2795459       -21.65762        -48.27052       -79.27539             -200               0             -200               0
1.60526               -0.2873835       -21.86871        -47.94423       -83.00025             -200               0             -200               0
1.61184               -0.2955463       -22.08286        -47.62634       -86.78545             -200               0             -200               0
1.61842                -0.304049       -22.30005        -47.31721       -90.62349             -200               0             -200               0
1.625                 -0.3129042       -22.52026         -47.0171       -94.50711             -200               0             -200               0
1.63158               -0.3221246       -22.74345        -46.72616       -98.42939             -200               0             -200               0
1.63816               -0.3317175       -22.96961        -46.44446       -102.3837             -200               0             -200               0
1.64474                -0.341693       -23.19871        -46.17199       -106.3637             -200               0             -200               0
1.65132               -0.3520554       -23.43072        -45.90865       -110.3634             -200               0             -200               0
1.65789               -0.3628098       -23.66564        -45.65431       -114.3771             -200               0             -200               0
1.66447               -0.3739598       -23.90345        -45.40876       -118.3994             -200               0             -200               0
1.67105               -0.3855065       -24.14417        -45.17175       -122.4249             -200               0             -200               0
1.67763               -0.3974506        -24.3878        -44.94297        -126.449             -200               0             -200               0
1.68421               -0.4097908       -24.63439        -44.72208       -130.4668             -200               0             -200               0
1.69079                -0.422528       -24.88398        -44.50868        -134.474             -200               0             -200               0
1.69737               -0.4356619       -25.13664        -44.30233       -138.4666             -200               0             -200               0
1.70395               -0.4491893       -25.39245        -44.10254       -142.4405             -200               0             -200               0
1.71053               -0.4631134       -25.65152         -43.9088       -146.3923             -200               0             -200               0
1.71711               -0.4774347       -25.91395        -43.72053       -150.3186             -200               0             -200               0
1.72368                -0.492157        -26.1799        -43.53711       -154.2165             -200               0             -200               0
1.73026               -0.5072842        -26.4495         -43.3579       -158.0833             -200               0             -200               0
1.73684               -0.5228236       -26.72293         -43.1822       -161.9168             -200               0             -200               0
1.74342               -0.5387864       -27.00038        -43.00929       -165.7153             -200               0             -200               0
1.75                  -0.5551844       -27.28202         -42.8384       -169.4772             -200               0             -200               0
1.75658               -0.5720342       -27.56807        -42.66874       -173.2018             -200               0             -200               0
1.76316               -0.5893548       -27.85874         -42.4995       -176.8887             -200               0             -200               0
1.76974               -0.6071708       -28.15424        -42.32985        179.4619             -200               0             -200               0
1.77632               -0.6255081       -28.45479        -42.15895        175.8492             -200               0             -200               0
1.78289               -0.6443968       -28.76061        -41.98599        172.2716             -200               0             -200               0
1.78947               -0.6638713       -29.07191        -41.81015        168.7271             -200               0             -200               0
1.79605                -0.683971       -29.38891        -41.63066        165.2129             -200               0             -200               0
1.80263               -0.7047365       -29.71179        -41.44678        161.7255             -200               0             -200               0
1.80921                -0.726213       -30.04076        -41.25785        158.2611             -200               0             -200               0
1.81579               -0.7484479       -30.37599        -41.06327        154.8149             -200               0             -200               0
1.82237               -0.7714916       -30.71765        -40.86253         151.382             -200               0             -200               0
1.82895               -0.7953982       -31.06589        -40.65522        147.9568             -200               0             -200               0
1.83553               -0.8202225       -31.42086        -40.44104        144.5336             -200               0             -200               0
1.84211               -0.8460236       -31.78268        -40.21981        141.1063             -200               0             -200               0
1.84868               -0.8728601       -32.15144        -39.99146         137.669             -200               0             -200               0
1.85526               -0.9007921       -32.52726        -39.75603        134.2154             -200               0             -200               0
1.86184               -0.9298819       -32.91019        -39.51369        130.7399             -200               0             -200               0
1.86842               -0.9601934       -33.30033        -39.26471        127.2367             -200               0             -200               0
1.875                 -0.9917893       -33.69771        -39.00946        123.7005             -200               0             -200               0
1.88158                -1.024734       -34.10239        -38.74839        120.1266             -200               0             -200               0
1.88816                -1.059093        -34.5144        -38.48204        116.5106             -200               0             -200               0
1.89474                -1.094932       -34.93379        -38.21099        112.8487             -200               0             -200               0
1.90132                -1.132317       -35.36058        -37.93586        109.1377             -200               0             -200               0
1.90789                -1.171316       -35.79481        -37.65733        105.3749             -200               0             -200               0
1.91447                -1.211999        -36.2365        -37.37606        101.5584             -200               0             -200               0
1.92105                -1.254432        -36.6857        -37.09274        97.68649             -200               0             -200               0
1.92763                -1.298691       -37.14244        -36.80804         93.7583             -200               0             -200               0
1.93421                -1.344851       -37.60678        -36.52262        89.77326             -200               0             -200               0
1.94079                -1.392986       -38.07878        -36.23713         85.7313             -200               0             -200               0
1.94737                 -1.44318       -38.55849        -35.95216        81.63271             -200               0             -200               0
1.95395                -1.495518       -39.04599        -35.66829         77.4781             -200               0             -200               0
1.96053                -1.550089       -39.54137        -35.38607        73.26842             -200               0             -200               0
1.96711                 -1.60699       -40.04472        -35.10598         69.0048             -200               0             -200               0
1.97368                -1.666323       -40.55613        -34.82851        64.68863             -200               0             -200               0
1.98026                -1.728199       -41.07569        -34.55407         60.3214             -200               0             -200               0
1.98684                -1.792736       -41.60352        -34.28304        55.90477             -200               0             -200               0
1.99342                -1.860059       -42.13971        -34.01578        51.44046             -200               0             -200               0
2                      -1.930307       -42.68435        -33.75261        46.93028             -200               0             -200               0
2.00658                -2.003626       -43.23751        -33.49381        42.37606             -200               0             -200               0
2.01316                -2.080173       -43.79926        -33.23964        37.77967             -200               0             -200               0
2.01974                 -2.16012       -44.36963         -32.9903        33.14296             -200               0             -200               0
2.02632                -2.243649       -44.94864        -32.74602         28.4678             -200               0             -200               0
2.03289                -2.330954       -45.53623        -32.50695          23.756             -200               0             -200               0
2.03947                -2.422247       -46.13236        -32.27326        19.00937             -200               0             -200               0
2.04605                -2.517751       -46.73687        -32.04507        14.22967             -200               0             -200               0
2.05263                -2.617703       -47.34959         -31.8225        9.418619             -200               0             -200               0
2.05921                -2.722357       -47.97022        -31.60564        4.577891             -200               0             -200               0
2.06579                -2.831984       -48.59846        -31.39459      -0.2908956             -200               0             -200               0
2.07237                -2.946866       -49.23384        -31.18941       -5.186171             -200               0             -200               0
2.07895                -3.067306       -49.87584        -30.99015       -10.10642             -200               0             -200               0
2.08553                -3.193623       -50.52381        -30.79688       -15.05016             -200               0             -200               0
2.09211                -3.326152       -51.17697        -30.60962         -20.016             -200               0             -200               0
2.09868                -3.465246       -51.83443        -30.42842       -25.00256             -200               0             -200               0
2.10526                -3.611277       -52.49511        -30.25329       -30.00853             -200               0             -200               0
2.11184                -3.764634       -53.15781        -30.08425       -35.03264             -200               0             -200               0
2.11842                -3.925729       -53.82112        -29.92132       -40.07368             -200               0             -200               0
2.125                  -4.094991       -54.48344         -29.7645       -45.13045             -200               0             -200               0
2.13158                -4.272873       -55.14295        -29.61381       -50.20182             -200               0             -200               0
2.13816                -4.459849        -55.7976        -29.46923        -55.2867             -200               0             -200               0
2.14474                -4.656418       -56.44505        -29.33078       -60.38402             -200               0             -200               0
2.15132                -4.863103        -57.0827        -29.19844       -65.49276             -200               0             -200               0
2.15789                -5.080453       -57.70757        -29.07221       -70.61193             -200               0             -200               0
2.16447                -5.309048       -58.31634        -28.95208       -75.74055             -200               0             -200               0
2.17105                -5.549496       -58.90525        -28.83804        -80.8777             -200               0             -200               0
2.17763                -5.802438       -59.47005        -28.73008       -86.02246             -200               0             -200               0
2.18421                -6.068548       -60.00595        -28.62819       -91.17394             -200               0             -200               0
2.19079                -6.348537        -60.5075        -28.53236       -96.33129             -200               0             -200               0
2.19737                -6.643151        -60.9685        -28.44258       -101.4937             -200               0             -200               0
2.20395                -6.953173       -61.38192        -28.35883       -106.6602             -200               0             -200               0
2.21053                -7.279425       -61.73966        -28.28109       -111.8302             -200               0             -200               0
2.21711                 -7.62276       -62.03245        -28.20937       -117.0027             -200               0             -200               0
2.22368                -7.984059       -62.24958        -28.14364        -122.177             -200               0             -200               0
2.23026                -8.364223       -62.37862        -28.08388       -127.3523             -200               0             -200               0
2.23684                -8.764152       -62.40513         -28.0301       -132.5279             -200               0             -200               0
2.24342                -9.184721        -62.3122        -27.98227       -137.7029             -200               0             -200               0
2.25                   -9.626734       -62.08002        -27.94038       -142.8767             -200               0             -200               0
2.25658                -10.09086       -61.68526        -27.90442       -148.0484             -200               0             -200               0
2.26316                -10.57755       -61.10041        -27.87438       -153.2174             -200               0             -200               0
2.26974                -11.08687         -60.293        -27.85024       -158.3829             -200               0             -200               0
2.27632                -11.61831       -59.22486        -27.83199        -163.544             -200               0             -200               0
2.28289                -12.17046        -57.8513        -27.81962       -168.7001             -200               0             -200               0
2.28947                 -12.7406        -56.1208        -27.81312       -173.8504             -200               0             -200               0