! TOUCHSTONE file generated by CST MICROWAVE STUDIO
! Date and time: Tue Mar 18 20:31:51 2025
! Project name: hairline.cst
! Parameters = {B=12.5; D=160; F=25; Feed=2.85625; Fracture=1; L=100; M=50; R=0.384908; S=1.5; Theta=180; length=57.125; wave=114.25}
! Header version: 2024
! Port assignment regex: !\s*Touchstone port\s*([0-9]+)\s*=\s*(CST MWS port|CST DES external port|CST DES block port)\s*(.+)\s* \(\"(.*)\"\)(\s*mode\s*([0-9]+))?.*
! Touchstone port assignment:
! Touchstone port 1 = CST MWS port 1 ("")
! Touchstone port 2 = CST MWS port 2 ("")
# GHz S DB R 50
1                    -0.01932643       -9.744158        -70.79271        118.1926             -200               0             -200               0
1.00758              -0.02031441       -9.844139         -70.9897        113.1528             -200               0             -200               0
1.01515              -0.02131209       -9.944629        -71.21615         108.286             -200               0             -200               0
1.02273              -0.02231453       -10.04566        -71.47317        103.6167             -200               0             -200               0
1.0303               -0.02331609       -10.14728        -71.76172        99.17521             -200               0             -200               0
1.03788              -0.02431402       -10.24951        -72.08247        94.99862             -200               0             -200               0
1.04545              -0.02530281       -10.35243        -72.43555        91.13235             -200               0             -200               0
1.05303              -0.02627985       -10.45607         -72.8202         87.6318             -200               0             -200               0
1.06061              -0.02724386        -10.5605         -73.2341        84.56387             -200               0             -200               0
1.06818              -0.02819574       -10.66578        -73.67253        82.00781             -200               0             -200               0
1.07576              -0.02913231       -10.77197        -74.12709        80.05427             -200               0             -200               0
1.08333              -0.03005896       -10.87914        -74.58399        78.80033             -200               0             -200               0
1.09091              -0.03097614       -10.98735        -75.02212        78.33735             -200               0             -200               0
1.09848               -0.0318875       -11.09667        -75.41158        78.72761             -200               0             -200               0
1.10606              -0.03279824       -11.20714        -75.71397        79.96838             -200               0             -200               0
1.11364              -0.03371579       -11.31884        -75.88668        81.95067             -200               0             -200               0
1.12121              -0.03464492        -11.4318        -75.89199        84.43479             -200               0             -200               0
1.12879              -0.03559377       -11.54608        -75.70901        87.07187             -200               0             -200               0
1.13636              -0.03657056       -11.66172        -75.34153        89.47926             -200               0             -200               0
1.14394              -0.03758372       -11.77874        -74.81654        91.33502             -200               0             -200               0
1.15152               -0.0386429       -11.89718        -74.17432        92.43896             -200               0             -200               0
1.15909              -0.03975634       -12.01705        -73.45689        92.71796             -200               0             -200               0
1.16667               -0.0409341       -12.13837        -72.70023        92.19338             -200               0             -200               0
1.17424              -0.04218332       -12.26115        -71.93145        90.93983             -200               0             -200               0
1.18182              -0.04351511       -12.38537        -71.16917        89.05277             -200               0             -200               0
1.18939              -0.04493581       -12.51104        -70.42528        86.62884             -200               0             -200               0
1.19697              -0.04645277       -12.63814        -69.70681        83.75629             -200               0             -200               0
1.20455              -0.04807278       -12.76666        -69.01756        80.51147             -200               0             -200               0
1.21212              -0.04980087       -12.89657        -68.35917        76.95863             -200               0             -200               0
1.2197               -0.05164345       -13.02786        -67.73199        73.15105             -200               0             -200               0
1.22727              -0.05360311       -13.16049        -67.13557        69.13266             -200               0             -200               0
1.23485              -0.05568187       -13.29445        -66.56899        64.93963             -200               0             -200               0
1.24242              -0.05788212        -13.4297        -66.03112        60.60183             -200               0             -200               0
1.25                 -0.06020473       -13.56623         -65.5207        56.14405             -200               0             -200               0
1.25758              -0.06264738       -13.70402        -65.03646        51.58698             -200               0             -200               0
1.26515              -0.06521117       -13.84305        -64.57718        46.94804             -200               0             -200               0
1.27273              -0.06789126       -13.98332        -64.14165        42.24199             -200               0             -200               0
1.2803               -0.07068722       -14.12482        -63.72877        37.48147             -200               0             -200               0
1.28788              -0.07359478       -14.26755        -63.33749         32.6774             -200               0             -200               0
1.29545              -0.07660936       -14.41154        -62.96686        27.83932             -200               0             -200               0
1.30303              -0.07972847        -14.5568        -62.61599        22.97566             -200               0             -200               0
1.31061              -0.08294701       -14.70335        -62.28405        18.09392             -200               0             -200               0
1.31818              -0.08626158       -14.85124         -61.9703        13.20089             -200               0             -200               0
1.32576              -0.08967054       -15.00051        -61.67402        8.302792             -200               0             -200               0
1.33333              -0.09316944       -15.15122        -61.39458        3.405381             -200               0             -200               0
1.34091              -0.09675668       -15.30342        -61.13137       -1.485945             -200               0             -200               0
1.34848               -0.1004319       -15.45718        -60.88382       -6.366053             -200               0             -200               0
1.35606               -0.1041945       -15.61257        -60.65141       -11.23001             -200               0             -200               0
1.36364               -0.1080467       -15.76968        -60.43361       -16.07301             -200               0             -200               0
1.37121               -0.1119905       -15.92858        -60.22994       -20.89032             -200               0             -200               0
1.37879               -0.1160305       -16.08935        -60.03993       -25.67725             -200               0             -200               0
1.38636               -0.1201719       -16.25209        -59.86308       -30.42909             -200               0             -200               0
1.39394               -0.1244222       -16.41687        -59.69893        -35.1411             -200               0             -200               0
1.40152               -0.1287885       -16.58378        -59.54698       -39.80843             -200               0             -200               0
1.40909                -0.133282        -16.7529        -59.40673       -44.42617             -200               0             -200               0
1.41667               -0.1379142       -16.92431        -59.27761       -48.98928             -200               0             -200               0
1.42424               -0.1426956       -17.09808        -59.15906       -53.49259             -200               0             -200               0
1.43182               -0.1476418       -17.27426        -59.05043       -57.93082             -200               0             -200               0
1.43939                -0.152766       -17.45293        -58.95101        -62.2986             -200               0             -200               0
1.44697               -0.1580828       -17.63411        -58.86004       -66.59045             -200               0             -200               0
1.45455               -0.1636097       -17.81787        -58.77662       -70.80089             -200               0             -200               0
1.46212               -0.1693612       -18.00423        -58.69979       -74.92445             -200               0             -200               0
1.4697                -0.1753544       -18.19321        -58.62843        -78.9558             -200               0             -200               0
1.47727               -0.1816045       -18.38483         -58.5613       -82.88985             -200               0             -200               0
1.48485               -0.1881285       -18.57909        -58.49703       -86.72192             -200               0             -200               0
1.49242               -0.1949411       -18.77599        -58.43406        -90.4479             -200               0             -200               0
1.5                   -0.2020559       -18.97551        -58.37068       -94.06451             -200               0             -200               0
1.50758               -0.2094886       -19.17766        -58.30503       -97.56953             -200               0             -200               0
1.51515               -0.2172508       -19.38239        -58.23509       -100.9621             -200               0             -200               0
1.52273                -0.225355       -19.58969        -58.15873        -104.243             -200               0             -200               0
1.5303                 -0.233811       -19.79952        -58.07369        -107.415             -200               0             -200               0
1.53788               -0.2426289       -20.01187        -57.97771        -110.483             -200               0             -200               0
1.54545               -0.2518153        -20.2267        -57.86852       -113.4544             -200               0             -200               0
1.55303               -0.2613776       -20.44398        -57.74397        -116.339             -200               0             -200               0
1.56061               -0.2713219       -20.66368        -57.60207       -119.1494             -200               0             -200               0
1.56818               -0.2816503        -20.8858        -57.44111       -121.9002             -200               0             -200               0
1.57576               -0.2923672       -21.11032        -57.25972       -124.6083             -200               0             -200               0
1.58333                -0.303475       -21.33724        -57.05698       -127.2918             -200               0             -200               0
1.59091               -0.3149745       -21.56656         -56.8324       -129.9701             -200               0             -200               0
1.59848               -0.3268674       -21.79829        -56.58603       -132.6624             -200               0             -200               0
1.60606                -0.339154       -22.03247        -56.31836       -135.3878             -200               0             -200               0
1.61364               -0.3518346       -22.26914        -56.03038       -138.1638             -200               0             -200               0
1.62121               -0.3649095       -22.50834        -55.72342       -141.0066             -200               0             -200               0
1.62879               -0.3783809       -22.75014        -55.39918         -143.93             -200               0             -200               0
1.63636               -0.3922502       -22.99461        -55.05954       -146.9453             -200               0             -200               0
1.64394                 -0.40652       -23.24184        -54.70654       -150.0614             -200               0             -200               0
1.65152               -0.4211959       -23.49193         -54.3423       -153.2848             -200               0             -200               0
1.65909               -0.4362821       -23.74499        -53.96888       -156.6197             -200               0             -200               0
1.66667               -0.4517885       -24.00115        -53.58831       -160.0679             -200               0             -200               0
1.67424               -0.4677218       -24.26052         -53.2025       -163.6298             -200               0             -200               0
1.68182               -0.4840943       -24.52324        -52.81318       -167.3041             -200               0             -200               0
1.68939               -0.5009221       -24.78946        -52.42198       -171.0883             -200               0             -200               0
1.69697                -0.518219       -25.05931         -52.0303       -174.9792             -200               0             -200               0
1.70455               -0.5360032       -25.33295        -51.63942       -178.9725             -200               0             -200               0
1.71212               -0.5542985       -25.61051        -51.25043        176.9361             -200               0             -200               0
1.7197                -0.5731268       -25.89215        -50.86428        172.7515             -200               0             -200               0
1.72727               -0.5925158       -26.17801        -50.48178        168.4786             -200               0             -200               0
1.73485               -0.6124931       -26.46823         -50.1036        164.1223             -200               0             -200               0
1.74242               -0.6330888       -26.76293        -49.73032        159.6876             -200               0             -200               0
1.75                  -0.6543362       -27.06225         -49.3624        155.1792             -200               0             -200               0
1.75758               -0.6762695        -27.3663        -49.00024        150.6018             -200               0             -200               0
1.76515               -0.6989265       -27.67519        -48.64412        145.9597             -200               0             -200               0
1.77273               -0.7223449       -27.98901         -48.2943        141.2573             -200               0             -200               0
1.7803                -0.7465634       -28.30787        -47.95095        136.4983             -200               0             -200               0
1.78788               -0.7716222       -28.63183        -47.61423        131.6867             -200               0             -200               0
1.79545               -0.7975622       -28.96097        -47.28422        126.8258             -200               0             -200               0
1.80303               -0.8244267       -29.29534        -46.96099        121.9191             -200               0             -200               0
1.81061               -0.8522574         -29.635        -46.64458        116.9695             -200               0             -200               0
1.81818               -0.8810965       -29.98001          -46.335          111.98             -200               0             -200               0
1.82576               -0.9109876       -30.33039        -46.03224        106.9533             -200               0             -200               0
1.83333               -0.9419733       -30.68619        -45.73628        101.8917             -200               0             -200               0
1.84091               -0.9740984       -31.04744        -45.44709        96.79777             -200               0             -200               0
1.84848                -1.007404       -31.41417        -45.16461        91.67354             -200               0             -200               0
1.85606                -1.041934       -31.78643        -44.88879        86.52106             -200               0             -200               0
1.86364                -1.077735       -32.16425        -44.61958        81.34221             -200               0             -200               0
1.87121                -1.114848       -32.54769         -44.3569        76.13875             -200               0             -200               0
1.87879                 -1.15332       -32.93679        -44.10069         70.9123             -200               0             -200               0
1.88636                -1.193196       -33.33163        -43.85086        65.66439             -200               0             -200               0
1.89394                -1.234525       -33.73228        -43.60735        60.39644             -200               0             -200               0
1.90152                -1.277354       -34.13882        -43.37008        55.10977             -200               0             -200               0
1.90909                -1.321739       -34.55137        -43.13897        49.80564             -200               0             -200               0
1.91667                -1.367731       -34.97004        -42.91395        44.48519             -200               0             -200               0
1.92424                -1.415389       -35.39496        -42.69493        39.14952             -200               0             -200               0
1.93182                -1.464778        -35.8263        -42.48185        33.79964             -200               0             -200               0
1.93939                 -1.51596        -36.2642        -42.27463        28.43651             -200               0             -200               0
1.94697                -1.569013       -36.70886        -42.07319        23.06103             -200               0             -200               0
1.95455                -1.624012       -37.16046        -41.87746        17.67403             -200               0             -200               0
1.96212                -1.681044       -37.61921        -41.68738        12.27633             -200               0             -200               0
1.9697                 -1.740202       -38.08534        -41.50287        6.868648             -200               0             -200               0
1.97727                -1.801587       -38.55904        -41.32387        1.451711             -200               0             -200               0
1.98485                 -1.86531       -39.04057        -41.15031       -3.973822             -200               0             -200               0
1.99242                -1.931491       -39.53012        -40.98213       -9.407316             -200               0             -200               0
2                      -2.000261       -40.02792        -40.81927       -14.84818             -200               0             -200               0
2.00758                -2.071763       -40.53418        -40.66167       -20.29583             -200               0             -200               0
2.01515                -2.146148       -41.04909        -40.50927       -25.74975             -200               0             -200               0
2.02273                -2.223585       -41.57281        -40.36201       -31.20942             -200               0             -200               0
2.0303                 -2.304249       -42.10551        -40.21986       -36.67434             -200               0             -200               0
2.03788                -2.388336       -42.64728        -40.08274       -42.14406             -200               0             -200               0
2.04545                -2.476049       -43.19819        -39.95062       -47.61813             -200               0             -200               0
2.05303                -2.567612       -43.75827        -39.82345       -53.09612             -200               0             -200               0
2.06061                -2.663259       -44.32749        -39.70117       -58.57763             -200               0             -200               0
2.06818                 -2.76324       -44.90577        -39.58375       -64.06227             -200               0             -200               0
2.07576                -2.867824       -45.49295        -39.47115       -69.54966             -200               0             -200               0
2.08333                -2.977293       -46.08879        -39.36332       -75.03943             -200               0             -200               0
2.09091                 -3.09195       -46.69297        -39.26023       -80.53125             -200               0             -200               0
2.09848                 -3.21211       -47.30508        -39.16184       -86.02476             -200               0             -200               0
2.10606                -3.338113        -47.9246        -39.06811       -91.51965             -200               0             -200               0
2.11364                -3.470314       -48.55091        -38.97901        -97.0156             -200               0             -200               0
2.12121                 -3.60909       -49.18326        -38.89451       -102.5123             -200               0             -200               0
2.12879                -3.754839       -49.82075        -38.81458       -108.0094             -200               0             -200               0
2.13636                 -3.90798       -50.46237        -38.73918       -113.5068             -200               0             -200               0
2.14394                 -4.06896       -51.10693         -38.6683       -119.0039             -200               0             -200               0
2.15152                 -4.23825       -51.75303         -38.6019       -124.5007             -200               0             -200               0
2.15909                -4.416347       -52.39912        -38.53996       -129.9968             -200               0             -200               0
2.16667                -4.603782        -53.0434        -38.48245        -135.492             -200               0             -200               0
2.17424                -4.801117       -53.68385        -38.42936       -140.9859             -200               0             -200               0
2.18182                -5.008951       -54.31814        -38.38066       -146.4784             -200               0             -200               0
2.18939                -5.227925       -54.94364        -38.33634       -151.9691             -200               0             -200               0
2.19697                -5.458722       -55.55738        -38.29637       -157.4578             -200               0             -200               0
2.20455                -5.702074       -56.15596        -38.26074       -162.9444             -200               0             -200               0
2.21212                -5.958769        -56.7355        -38.22943       -168.4284             -200               0             -200               0
2.2197                 -6.229655       -57.29157        -38.20243       -173.9096             -200               0             -200               0
2.22727                -6.515648       -57.81909        -38.17972       -179.3879             -200               0             -200               0
2.23485                -6.817739       -58.31221        -38.16129         175.137             -200               0             -200               0
2.24242                -7.137002       -58.76413        -38.14713        169.6655             -200               0             -200               0
2.25                   -7.474601       -59.16697        -38.13723        164.1976             -200               0             -200               0
2.25758                -7.831802       -59.51149        -38.13158        158.7338             -200               0             -200               0
2.26515                -8.209981       -59.78679        -38.13017        153.2742             -200               0             -200               0
2.27273                -8.610625       -59.97996        -38.13299        147.8191             -200               0             -200               0
2.2803                 -9.035338       -60.07556        -38.14004        142.3688             -200               0             -200               0
2.28788                -9.485839       -60.05502        -38.15131        136.9234             -200               0             -200               0
2.29545                -9.963937       -59.89583         -38.1668        131.4834             -200               0             -200               0
2.30303                 -10.4715       -59.57047         -38.1865        126.0489             -200               0             -200               0
2.31061                -11.01037       -59.04514         -38.2104        120.6202             -200               0             -200               0
2.31818                -11.58225       -58.27796        -38.23852        115.1975             -200               0             -200               0
2.32576                -12.18842       -57.21686        -38.27084        109.7813             -200               0             -200               0
2.33333                -12.82937       -55.79701        -38.30737        104.3717             -200               0             -200               0
2.34091                -13.50413       -53.93786         -38.3481        98.96897             -200               0             -200               0
2.34848                -14.20915       -51.54051        -38.39304        93.57351             -200               0             -200               0
2.35606                -14.93664       -48.48653        -38.44219        88.18559             -200               0             -200               0
2.36364                -15.67206       -44.64143        -38.49555        82.80552             -200               0             -200               0
2.37121                -16.39089       -39.86809        -38.55312         77.4336             -200               0             -200               0
2.37879                -17.05541       -34.05837        -38.61491        72.07016             -200               0             -200               0
2.38636                -17.61397       -27.18953        -38.68092        66.71555             -200               0             -200               0
2.39394                -18.00667       -19.39661        -38.75116        61.37009             -200               0             -200               0
2.40152                -18.18079       -11.01943        -38.82563        56.03415             -200               0             -200               0
2.40909                -18.11123       -2.562269        -38.90434        50.70807             -200               0             -200               0
2.41667                -17.81244        5.446857        -38.98729        45.39225             -200               0             -200               0
2.42424                -17.33138         12.6132        -39.07449        40.08706             -200               0             -200               0
2.43182                -16.72782        18.74652        -39.16594        34.79289             -200               0             -200               0
2.43939                -16.05666        23.83271        -39.26167        29.51016             -200               0             -200               0
2.44697                -15.35957        27.96271        -39.36166        24.23928             -200               0             -200               0
2.45455                -14.66443        31.26966        -39.46593         18.9807             -200               0             -200               0
2.46212                -13.98817        33.89065        -39.57449        13.73486             -200               0             -200               0
2.4697                 -13.34014        35.94914        -39.68734         8.50223             -200               0             -200               0
2.47727                -12.72484        37.54937        -39.80448        3.283288             -200               0             -200               0
2.48485                -12.14375        38.77661        -39.92594       -1.921468             -200               0             -200               0