! TOUCHSTONE file generated by CST MICROWAVE STUDIO
! Date and time: Tue Mar 18 20:31:58 2025
! Project name: hairline.cst
! Parameters = {B=12.5; D=160; F=25; Feed=2.85625; Fracture=1; L=100; M=50; R=0.384908; S=1.5; Theta=270; length=57.125; wave=114.25}
! Header version: 2024
! Port assignment regex: !\s*Touchstone port\s*([0-9]+)\s*=\s*(CST MWS port|CST DES external port|CST DES block port)\s*(.+)\s* \(\"(.*)\"\)(\s*mode\s*([0-9]+))?.*
! Touchstone port assignment:
! Touchstone port 1 = CST MWS port 1 ("")
! Touchstone port 2 = CST MWS port 2 ("")
# GHz S DB R 50
1                    -0.01943756       -9.765812        -70.62373        117.1589             -200               0             -200               0
1.00758              -0.02042626       -9.866051        -70.82848        112.0342             -200               0             -200               0
1.01515              -0.02142489       -9.966806        -71.06392        107.0779             -200               0             -200               0
1.02273              -0.02242845       -10.06811        -71.33146        102.3144             -200               0             -200               0
1.0303               -0.02342975          -10.17        -71.63242        97.77389             -200               0             -200               0
1.03788              -0.02442804       -10.27252        -71.96797        93.49391             -200               0             -200               0
1.04545              -0.02541623       -10.37573        -72.33884         89.5209             -200               0             -200               0
1.05303              -0.02639324       -10.47968        -72.74499        85.91236             -200               0             -200               0
1.06061              -0.02735733       -10.58442          -73.185        82.73907             -200               0             -200               0
1.06818               -0.0283082       -10.69002        -73.65516        80.08695             -200               0             -200               0
1.07576              -0.02924546       -10.79655        -74.14804        78.05742             -200               0             -200               0
1.08333              -0.03017213       -10.90406        -74.65057         76.7641             -200               0             -200               0
1.09091              -0.03108883       -11.01263        -75.14148        76.32163             -200               0             -200               0
1.09848              -0.03200234        -11.1223        -75.58894        76.82104             -200               0             -200               0
1.10606              -0.03291465       -11.23315        -75.94985        78.28728             -200               0             -200               0
1.11364              -0.03383534       -11.34523        -76.17376        80.62412             -200               0             -200               0
1.12121              -0.03476808       -11.45858        -76.21367        83.57299             -200               0             -200               0
1.12879              -0.03572207       -11.57326        -76.04167        86.72928             -200               0             -200               0
1.13636              -0.03670458        -11.6893        -75.66056        89.63573             -200               0             -200               0
1.14394              -0.03772497       -11.80673        -75.10259        91.90858             -200               0             -200               0
1.15152              -0.03879136       -11.92559        -74.41634        93.31875             -200               0             -200               0
1.15909               -0.0399142       -12.04589        -73.65147        93.79528             -200               0             -200               0
1.16667              -0.04110251       -12.16764        -72.84913        93.37881             -200               0             -200               0
1.17424               -0.0423644       -12.29084        -72.03908        92.16747             -200               0             -200               0
1.18182              -0.04370834        -12.4155        -71.24087        90.27755             -200               0             -200               0
1.18939              -0.04514294       -12.54161        -70.46635        87.82165             -200               0             -200               0
1.19697              -0.04667439       -12.66916        -69.72204        84.89932             -200               0             -200               0
1.20455              -0.04830903       -12.79812        -69.01108        81.59453             -200               0             -200               0
1.21212              -0.05005452       -12.92847        -68.33449        77.97653             -200               0             -200               0
1.2197               -0.05191357        -13.0602        -67.69202        74.10176             -200               0             -200               0
1.22727              -0.05388988       -13.19328        -67.08274        70.01614             -200               0             -200               0
1.23485              -0.05598581       -13.32768        -66.50532        65.75703             -200               0             -200               0
1.24242              -0.05820451       -13.46338        -65.95828        61.35499             -200               0             -200               0
1.25                 -0.06054396       -13.60037         -65.4401        56.83517             -200               0             -200               0
1.25758              -0.06300568       -13.73861        -64.94929        52.21842             -200               0             -200               0
1.26515              -0.06558641        -13.8781        -64.48443        47.52218             -200               0             -200               0
1.27273               -0.0682834       -14.01884        -64.04418        42.76116             -200               0             -200               0
1.2803                -0.0710973       -14.16081        -63.62731         37.9479             -200               0             -200               0
1.28788              -0.07402055       -14.30402        -63.23269         33.0932             -200               0             -200               0
1.29545              -0.07705168        -14.4485        -62.85928        28.20647             -200               0             -200               0
1.30303              -0.08018662       -14.59425        -62.50612        23.29598             -200               0             -200               0
1.31061              -0.08342212       -14.74131        -62.17233        18.36912             -200               0             -200               0
1.31818              -0.08675235       -14.88972        -61.85712        13.43255             -200               0             -200               0
1.32576              -0.09017597       -15.03952        -61.55975        8.492372             -200               0             -200               0
1.33333              -0.09368938       -15.19078        -61.27954        3.554229             -200               0             -200               0
1.34091              -0.09729168       -15.34354        -61.01587       -1.376574             -200               0             -200               0
1.34848               -0.1009823       -15.49789        -60.76815       -6.294992             -200               0             -200               0
1.35606               -0.1047607       -15.65388        -60.53584       -11.19617             -200               0             -200               0
1.36364               -0.1086299       -15.81161        -60.31841       -16.07535             -200               0             -200               0
1.37121               -0.1125904       -15.97114        -60.11536       -20.92788             -200               0             -200               0
1.37879               -0.1166482       -16.13258        -59.92621       -25.74909             -200               0             -200               0
1.38636               -0.1208097         -16.296        -59.75049       -30.53429             -200               0             -200               0
1.39394               -0.1250798       -16.46148         -59.5877       -35.27876             -200               0             -200               0
1.40152               -0.1294701       -16.62912        -59.43737       -39.97765             -200               0             -200               0
1.40909               -0.1339881       -16.79899        -59.29897       -44.62602             -200               0             -200               0
1.41667                -0.138647       -16.97116        -59.17198       -49.21879             -200               0             -200               0
1.42424               -0.1434578       -17.14571        -59.05581       -53.75074             -200               0             -200               0
1.43182               -0.1484361        -17.3227        -58.94983        -58.2165             -200               0             -200               0
1.43939               -0.1535948       -17.50218        -58.85334        -62.6106             -200               0             -200               0
1.44697               -0.1589502       -17.68421        -58.76556       -66.92742             -200               0             -200               0
1.45455               -0.1645175       -17.86882        -58.68563       -71.16132             -200               0             -200               0
1.46212               -0.1703136       -18.05605        -58.61256       -75.30664             -200               0             -200               0
1.4697                -0.1763547       -18.24592        -58.54526       -79.35782             -200               0             -200               0
1.47727               -0.1826546       -18.43843        -58.48246       -83.30952             -200               0             -200               0
1.48485               -0.1892325        -18.6336        -58.42278       -87.15678             -200               0             -200               0
1.49242               -0.1961025       -18.83142        -58.36465       -90.89517             -200               0             -200               0
1.5                    -0.203278       -19.03188        -58.30632        -94.5211             -200               0             -200               0
1.50758               -0.2107745       -19.23496         -58.2459       -98.03202             -200               0             -200               0
1.51515               -0.2186039       -19.44065        -58.18132       -101.4267             -200               0             -200               0
1.52273               -0.2267771        -19.6489        -58.11035       -104.7058             -200               0             -200               0
1.5303                -0.2353061       -19.85971         -58.0307       -107.8716             -200               0             -200               0
1.53788                -0.244199       -20.07303        -57.93998       -110.9291             -200               0             -200               0
1.54545                -0.253463       -20.28884        -57.83583       -113.8855             -200               0             -200               0
1.55303               -0.2631053       -20.50711        -57.71598       -116.7509             -200               0             -200               0
1.56061               -0.2731308       -20.72782        -57.57834        -119.538             -200               0             -200               0
1.56818               -0.2835446       -20.95096        -57.42109       -122.2619             -200               0             -200               0
1.57576                -0.294348       -21.17651        -57.24278         -124.94             -200               0             -200               0
1.58333               -0.3055446       -21.40447        -57.04239       -127.5914             -200               0             -200               0
1.59091               -0.3171358       -21.63485        -56.81942       -130.2361             -200               0             -200               0
1.59848               -0.3291206       -21.86766        -56.57386       -132.8943             -200               0             -200               0
1.60606               -0.3415022       -22.10294        -56.30624       -135.5858             -200               0             -200               0
1.61364               -0.3542797       -22.34072        -56.01757       -138.3292             -200               0             -200               0
1.62121                -0.367454       -22.58107        -55.70926       -141.1412             -200               0             -200               0
1.62879               -0.3810275       -22.82404        -55.38308       -144.0362             -200               0             -200               0
1.63636               -0.3950016       -23.06971        -55.04101       -147.0261             -200               0             -200               0
1.64394               -0.4093802       -23.31818        -54.68519       -150.1201             -200               0             -200               0
1.65152               -0.4241671       -23.56954        -54.31781       -153.3247             -200               0             -200               0
1.65909               -0.4393684        -23.8239        -53.94105       -156.6441             -200               0             -200               0
1.66667               -0.4549924       -24.08139        -53.55702       -160.0803             -200               0             -200               0
1.67424               -0.4710504       -24.34214        -53.16768       -163.6332             -200               0             -200               0
1.68182               -0.4875521       -24.60628        -52.77486       -167.3015             -200               0             -200               0
1.68939               -0.5045133       -24.87396        -52.38019       -171.0824             -200               0             -200               0
1.69697               -0.5219515       -25.14531        -51.98516       -174.9724             -200               0             -200               0
1.70455               -0.5398844       -25.42049        -51.59104        -178.967             -200               0             -200               0
1.71212               -0.5583348       -25.69964        -51.19897        176.9383             -200               0             -200               0
1.7197                -0.5773269       -25.98291         -50.8099        172.7488             -200               0             -200               0
1.72727               -0.5968875       -26.27044        -50.42465        168.4695             -200               0             -200               0
1.73485               -0.6170449       -26.56237         -50.0439        164.1056             -200               0             -200               0
1.74242               -0.6378313       -26.85882        -49.66823        159.6623             -200               0             -200               0
1.75                  -0.6592782       -27.15993        -49.29809        155.1444             -200               0             -200               0
1.75758               -0.6814242        -27.4658        -48.93388        150.5567             -200               0             -200               0
1.76515               -0.7043029       -27.77655        -48.57588        145.9038             -200               0             -200               0
1.77273               -0.7279555       -28.09228        -48.22435        141.1899             -200               0             -200               0
1.7803                -0.7524187       -28.41306        -47.87944        136.4192             -200               0             -200               0
1.78788                -0.777736       -28.73898         -47.5413        131.5956             -200               0             -200               0
1.79545               -0.8039471       -29.07011        -47.21001        126.7224             -200               0             -200               0
1.80303                -0.831095        -29.4065        -46.88564        121.8033             -200               0             -200               0
1.81061               -0.8592226       -29.74821        -46.56821        116.8412             -200               0             -200               0
1.81818               -0.8883715       -30.09528        -46.25772        111.8391             -200               0             -200               0
1.82576               -0.9185868       -30.44775        -45.95417        106.7997             -200               0             -200               0
1.83333               -0.9499113       -30.80567        -45.65753        101.7256             -200               0             -200               0
1.84091               -0.9823872       -31.16905        -45.36774        96.61902             -200               0             -200               0
1.84848                 -1.01606       -31.53796        -45.08477        91.48227             -200               0             -200               0
1.85606                -1.050972       -31.91241        -44.80855        86.31736             -200               0             -200               0
1.86364                -1.087168       -32.29245        -44.53901        81.12618             -200               0             -200               0
1.87121                -1.124693       -32.67813        -44.27608        75.91049             -200               0             -200               0
1.87879                -1.163593       -33.06951        -44.01969        70.67194             -200               0             -200               0
1.88636                -1.203914       -33.46666        -43.76976        65.41206             -200               0             -200               0
1.89394                -1.245703       -33.86964        -43.52621        60.13228             -200               0             -200               0
1.90152                -1.289012       -34.27857        -43.28896        54.83393             -200               0             -200               0
1.90909                -1.333893       -34.69354        -43.05793        49.51827             -200               0             -200               0
1.91667                -1.380403       -35.11467        -42.83304        44.18644             -200               0             -200               0
1.92424                  -1.4286       -35.54211        -42.61421        38.83955             -200               0             -200               0
1.93182                -1.478547         -35.976        -42.40137         33.4786             -200               0             -200               0
1.93939                -1.530314       -36.41653        -42.19443        28.10457             -200               0             -200               0
1.94697                -1.583975       -36.86386        -41.99332        22.71835             -200               0             -200               0
1.95455                -1.639609       -37.31821        -41.79797        17.32077             -200               0             -200               0
1.96212                -1.697304       -37.77976         -41.6083        11.91265             -200               0             -200               0
1.9697                 -1.757157       -38.24875        -41.42425        6.494713             -200               0             -200               0
1.97727                -1.819271       -38.72539        -41.24574        1.067682             -200               0             -200               0
1.98485                -1.883759       -39.20991         -41.0727        -4.36778             -200               0             -200               0
1.99242                -1.950743       -39.70253        -40.90509       -9.811045             -200               0             -200               0
2                      -2.020359       -40.20346        -40.74282       -15.26151             -200               0             -200               0
2.00758                 -2.09275       -40.71292        -40.58585       -20.71862             -200               0             -200               0
2.01515                -2.168073       -41.23109        -40.43411       -26.18183             -200               0             -200               0
2.02273                -2.246499       -41.75813        -40.28755       -31.65063             -200               0             -200               0
2.0303                  -2.32821       -42.29418        -40.14611       -37.12454             -200               0             -200               0
2.03788                -2.413401       -42.83934        -40.00974       -42.60308             -200               0             -200               0
2.04545                -2.502284       -43.39369        -39.87839       -48.08582             -200               0             -200               0
2.05303                -2.595083       -43.95723        -39.75202       -53.57232             -200               0             -200               0
2.06061                -2.692039       -44.52991        -39.63057       -59.06219             -200               0             -200               0
2.06818                -2.793408       -45.11164          -39.514       -64.55503             -200               0             -200               0
2.07576                -2.899461       -45.70224        -39.40227       -70.05048             -200               0             -200               0
2.08333                -3.010486       -46.30147        -39.29534       -75.54816             -200               0             -200               0
2.09091                -3.126791       -46.90896        -39.19317       -81.04772             -200               0             -200               0
2.09848                  -3.2487       -47.52431        -39.09572       -86.54884             -200               0             -200               0
2.10606                -3.376557       -48.14694        -39.00296       -92.05118             -200               0             -200               0
2.11364                -3.510722       -48.77623        -38.91484       -97.55444             -200               0             -200               0
2.12121                -3.651582       -49.41138        -38.83135       -103.0583             -200               0             -200               0
2.12879                -3.799539       -50.05147        -38.75244       -108.5624             -200               0             -200               0
2.13636                -3.955023       -50.69544        -38.67809       -114.0666             -200               0             -200               0
2.14394                -4.118489       -51.34204        -38.60828       -119.5705             -200               0             -200               0
2.15152                -4.290415       -51.98986        -38.54296       -125.0738             -200               0             -200               0
2.15909                -4.471311       -52.63727        -38.48213       -130.5763             -200               0             -200               0
2.16667                -4.661719       -53.28241        -38.42575       -136.0777             -200               0             -200               0
2.17424                -4.862213       -53.92318         -38.3738       -141.5777             -200               0             -200               0
2.18182                -5.073404        -54.5572        -38.32627       -147.0762             -200               0             -200               0
2.18939                -5.295949       -55.18173        -38.28312       -152.5727             -200               0             -200               0
2.19697                -5.530548        -55.7937        -38.24435       -158.0671             -200               0             -200               0
2.20455                -5.777951       -56.38958        -38.20993       -163.5591             -200               0             -200               0
2.21212                 -6.03897       -56.96534        -38.17985       -169.0484             -200               0             -200               0
2.2197                 -6.314473       -57.51641         -38.1541       -174.5349             -200               0             -200               0
2.22727                -6.605404       -58.03749        -38.13266        179.9818             -200               0             -200               0
2.23485                -6.912781       -58.52248        -38.11551        174.5019             -200               0             -200               0
2.24242                -7.237714        -58.9643        -38.10265        169.0257             -200               0             -200               0
2.25                   -7.581403        -59.3547        -38.09406        163.5534             -200               0             -200               0
2.25758                -7.945155       -59.68401        -38.08974        158.0852             -200               0             -200               0
2.26515                -8.330391       -59.94078        -38.08968        152.6214             -200               0             -200               0
2.27273                -8.738645       -60.11142        -38.09386        147.1623             -200               0             -200               0
2.2803                 -9.171577       -60.17966        -38.10229        141.7081             -200               0             -200               0
2.28788                -9.630953       -60.12583        -38.11495        136.2591             -200               0             -200               0
2.29545                -10.11863       -59.92607        -38.13184        130.8155             -200               0             -200               0
2.30303                -10.63652       -59.55108        -38.15296        125.3777             -200               0             -200               0
2.31061                -11.18649       -58.96478         -38.1783        119.9459             -200               0             -200               0
2.31818                -11.77017        -58.1224        -38.20787        114.5203             -200               0             -200               0
2.32576                -12.38874       -56.96811        -38.24166        109.1013             -200               0             -200               0
2.33333                -13.04243       -55.43231        -38.27966        103.6891             -200               0             -200               0
2.34091                 -13.7297        -53.4286        -38.32189        98.28407             -200               0             -200               0
2.34848                -14.44605       -50.85122        -38.36833        92.88646             -200               0             -200               0
2.35606                -15.18205       -47.57472        -38.41899        87.49659             -200               0             -200               0
2.36364                -15.92053       -43.45949        -38.47388        82.11477             -200               0             -200               0
2.37121                -16.63316       -38.36972          -38.533        76.74132             -200               0             -200               0
2.37879                -17.27746       -32.21256        -38.59634        71.37658             -200               0             -200               0
2.38636                -17.79748       -25.00297        -38.66392        66.02087             -200               0             -200               0
2.39394                 -18.1323       -16.93668        -38.73573        60.67456             -200               0             -200               0
2.40152                -18.23445       -8.418672        -38.81179        55.33798             -200               0             -200               0
2.40909                -18.09005      0.01206493        -38.89209        50.01152             -200               0             -200               0
2.41667                -17.72561        7.845122        -38.97665        44.69555             -200               0             -200               0
2.42424                -17.19537        14.74143        -39.06546        39.39046             -200               0             -200               0
2.43182                -16.56015        20.57106        -39.15855        34.09665             -200               0             -200               0
2.43939                -15.87195        25.36267         -39.2559        28.81454             -200               0             -200               0
2.44697                -15.16835        29.22899        -39.35753        23.54455             -200               0             -200               0
2.45455                -14.47361         32.3101        -39.46344        18.28712             -200               0             -200               0
2.46212                -13.80194        34.74206        -39.57365        13.04272             -200               0             -200               0
2.4697                 -13.16088          36.644        -39.68815        7.811817             -200               0             -200               0
2.47727                -12.55372          38.115        -39.80695        2.594895             -200               0             -200               0
2.48485                -11.98126        39.23552        -39.93007       -2.607541             -200               0             -200               0