! TOUCHSTONE file generated by CST MICROWAVE STUDIO
! Date and time: Tue Mar 18 20:31:46 2025
! Project name: hairline.cst
! Parameters = {B=12.5; D=160; F=15; Feed=2.85625; Fracture=1; L=100; M=30; R=0.384908; S=1.5; Theta=180; length=57.125; wave=114.25}
! Header version: 2024
! Port assignment regex: !\s*Touchstone port\s*([0-9]+)\s*=\s*(CST MWS port|CST DES external port|CST DES block port)\s*(.+)\s* \(\"(.*)\"\)(\s*mode\s*([0-9]+))?.*
! Touchstone port assignment:
! Touchstone port 1 = CST MWS port 1 ("")
! Touchstone port 2 = CST MWS port 2 ("")
# GHz S DB R 50
1                    -0.02152313        -9.71665        -66.10824         174.138             -200               0             -200               0
1.0066               -0.02215429       -9.802177        -66.15157        168.3031             -200               0             -200               0
1.0132               -0.02276897       -9.888327        -66.23176        162.5727             -200               0             -200               0
1.0198                -0.0233671       -9.975145        -66.35049        156.9563             -200               0             -200               0
1.0264               -0.02395222       -10.06268        -66.50978        151.4662             -200               0             -200               0
1.033                -0.02452996       -10.15098        -66.71203        146.1187             -200               0             -200               0
1.0396               -0.02510299       -10.24007        -66.96013        140.9347             -200               0             -200               0
1.0462               -0.02567764          -10.33        -67.25741        135.9416             -200               0             -200               0
1.05281              -0.02626099        -10.4208        -67.60778        131.1752             -200               0             -200               0
1.05941              -0.02685961       -10.51249        -68.01566        126.6828             -200               0             -200               0
1.06601              -0.02747994       -10.60508        -68.48595         122.528             -200               0             -200               0
1.07261              -0.02812894       -10.69859        -69.02377        118.7962             -200               0             -200               0
1.07921              -0.02881437       -10.79302        -69.63382        115.6049             -200               0             -200               0
1.08581              -0.02954363       -10.88836        -70.31902        113.1151             -200               0             -200               0
1.09241              -0.03032228       -10.98461         -71.0775        111.5486             -200               0             -200               0
1.09901              -0.03115708       -11.08174        -71.89665        111.2038             -200               0             -200               0
1.10561              -0.03205335       -11.17974        -72.74196        112.4557             -200               0             -200               0
1.11221              -0.03301514       -11.27857        -73.53941        115.6975             -200               0             -200               0
1.11881              -0.03404648       -11.37822        -74.15905        121.1379             -200               0             -200               0
1.12541              -0.03514845       -11.47863        -74.42968        128.4256             -200               0             -200               0
1.13201               -0.0363242       -11.57979        -74.22124        136.4015             -200               0             -200               0
1.13861              -0.03757336       -11.68166        -73.54497        143.5301             -200               0             -200               0
1.14521              -0.03889486       -11.78419        -72.54354        148.7592             -200               0             -200               0
1.15182               -0.0402878       -11.88737        -71.38548        151.8403             -200               0             -200               0
1.15842              -0.04174736       -11.99116        -70.19238        153.0281             -200               0             -200               0
1.16502              -0.04327063       -12.09555        -69.03126        152.7217             -200               0             -200               0
1.17162              -0.04485356       -12.20051        -67.93245        151.2876             -200               0             -200               0
1.17822              -0.04649087       -12.30604         -66.9063        149.0135             -200               0             -200               0
1.18482              -0.04817488       -12.41213        -65.95349        146.1127             -200               0             -200               0
1.19142              -0.04990074       -12.51879        -65.07049        142.7405             -200               0             -200               0
1.19802              -0.05166286       -12.62603        -64.25222        139.0102             -200               0             -200               0
1.20462              -0.05345376       -12.73387         -63.4933        135.0057             -200               0             -200               0
1.21122              -0.05526771       -12.84234        -62.78859        130.7894             -200               0             -200               0
1.21782              -0.05710029       -12.95147        -62.13345        126.4088             -200               0             -200               0
1.22442              -0.05894474       -13.06132        -61.52372        121.9008             -200               0             -200               0
1.23102              -0.06079908       -13.17193        -60.95575        117.2941             -200               0             -200               0
1.23762              -0.06266018       -13.28336        -60.42638        112.6119             -200               0             -200               0
1.24422              -0.06452425       -13.39567        -59.93281        107.8729             -200               0             -200               0
1.25083                -0.066392       -13.50892        -59.47262        103.0925             -200               0             -200               0
1.25743              -0.06826332       -13.62318        -59.04369        98.28392             -200               0             -200               0
1.26403              -0.07014139       -13.73852        -58.64415        93.45824             -200               0             -200               0
1.27063              -0.07202821         -13.855        -58.27234        88.62528             -200               0             -200               0
1.27723              -0.07392857       -13.97268        -57.92682        83.79375             -200               0             -200               0
1.28383              -0.07584769       -14.09163        -57.60627        78.97154             -200               0             -200               0
1.29043              -0.07779207        -14.2119        -57.30953        74.16597             -200               0             -200               0
1.29703              -0.07976997       -14.33354        -57.03555        69.38393             -200               0             -200               0
1.30363              -0.08178829       -14.45659        -56.78334        64.63203             -200               0             -200               0
1.31023              -0.08385946       -14.58109        -56.55202        59.91671             -200               0             -200               0
1.31683              -0.08598935       -14.70707        -56.34074        55.24433             -200               0             -200               0
1.32343              -0.08818905       -14.83455        -56.14869        50.62127             -200               0             -200               0
1.33003              -0.09046784       -14.96354         -55.9751        46.05399             -200               0             -200               0
1.33663              -0.09283459       -15.09403        -55.81918        41.54906             -200               0             -200               0
1.34323               -0.0952984       -15.22603        -55.68014        37.11325             -200               0             -200               0
1.34984              -0.09786814       -15.35953        -55.55714        32.75351             -200               0             -200               0
1.35644               -0.1005497        -15.4945        -55.44931        28.47704             -200               0             -200               0
1.36304               -0.1033504       -15.63092        -55.35569        24.29123             -200               0             -200               0
1.36964               -0.1062741       -15.76877        -55.27522        20.20365             -200               0             -200               0
1.37624               -0.1093254       -15.90801        -55.20674        16.22203             -200               0             -200               0
1.38284               -0.1125065       -16.04862        -55.14891         12.3541             -200               0             -200               0
1.38944               -0.1158174       -16.19057        -55.10023        8.607533             -200               0             -200               0
1.39604               -0.1192603       -16.33383        -55.05902        4.989676             -200               0             -200               0
1.40264               -0.1228319       -16.47837        -55.02333        1.507353             -200               0             -200               0
1.40924               -0.1265291       -16.62417        -54.99102        -1.83347             -200               0             -200               0
1.41584               -0.1303487       -16.77123        -54.95965       -5.028079             -200               0             -200               0
1.42244                -0.134285       -16.91955        -54.92657       -8.073459             -200               0             -200               0
1.42904               -0.1383338       -17.06912         -54.8889        -10.9688             -200               0             -200               0
1.43564                -0.142489       -17.21996        -54.84356       -13.71603             -200               0             -200               0
1.44224               -0.1467433       -17.37211        -54.78737       -16.32029             -200               0             -200               0
1.44884               -0.1510907       -17.52559        -54.71715        -18.7904             -200               0             -200               0
1.45545               -0.1555251       -17.68047        -54.62983       -21.13906             -200               0             -200               0
1.46205               -0.1600409       -17.83678         -54.5226        -23.3829             -200               0             -200               0
1.46865               -0.1646329       -17.99463        -54.39305       -25.54224             -200               0             -200               0
1.47525                  -0.1693       -18.15407        -54.23935       -27.64047             -200               0             -200               0
1.48185               -0.1740362       -18.31521        -54.06033       -29.70318             -200               0             -200               0
1.48845               -0.1788445       -18.47814         -53.8556       -31.75703             -200               0             -200               0
1.49505               -0.1837223       -18.64295        -53.62551       -33.82851             -200               0             -200               0
1.50165               -0.1886737       -18.80978        -53.37116       -35.94275             -200               0             -200               0
1.50825               -0.1937042       -18.97872        -53.09432       -38.12239             -200               0             -200               0
1.51485               -0.1988182       -19.14989        -52.79727        -40.3868             -200               0             -200               0
1.52145               -0.2040257        -19.3234        -52.48264       -42.75156             -200               0             -200               0
1.52805               -0.2093378       -19.49936        -52.15331       -45.22829             -200               0             -200               0
1.53465               -0.2147644       -19.67787        -51.81221        -47.8247             -200               0             -200               0
1.54125               -0.2203215       -19.85904        -51.46225       -50.54492             -200               0             -200               0
1.54785               -0.2260236       -20.04295        -51.10618       -53.38994             -200               0             -200               0
1.55446               -0.2318891       -20.22968        -50.74654       -56.35813             -200               0             -200               0
1.56106               -0.2379326       -20.41931        -50.38565       -59.44574             -200               0             -200               0
1.56766               -0.2441764       -20.61189        -50.02553       -62.64746             -200               0             -200               0
1.57426               -0.2506372       -20.80747        -49.66796       -65.95675             -200               0             -200               0
1.58086                -0.257335       -21.00609        -49.31445       -69.36635             -200               0             -200               0
1.58746               -0.2642901       -21.20776        -48.96625       -72.86848             -200               0             -200               0
1.59406               -0.2715203       -21.41251        -48.62441       -76.45515             -200               0             -200               0
1.60066               -0.2790444       -21.62034        -48.28978        -80.1183             -200               0             -200               0
1.60726               -0.2868783       -21.83123        -47.96303       -83.84996             -200               0             -200               0
1.61386               -0.2950389       -22.04517        -47.64466       -87.64235             -200               0             -200               0
1.62046               -0.3035406       -22.26214        -47.33506       -91.48792             -200               0             -200               0
1.62706               -0.3123958       -22.48211        -47.03447        -95.3794             -200               0             -200               0
1.63366               -0.3216166       -22.70505        -46.74307       -99.30982             -200               0             -200               0
1.64026               -0.3312107       -22.93094         -46.4609       -103.2725             -200               0             -200               0
1.64686               -0.3411869       -23.15974        -46.18797       -107.2612             -200               0             -200               0
1.65347               -0.3515503       -23.39144        -45.92419       -111.2698             -200               0             -200               0
1.66007               -0.3623052       -23.62603        -45.66942       -115.2925             -200               0             -200               0
1.66667               -0.3734547       -23.86349        -45.42344        -119.324             -200               0             -200               0
1.67327               -0.3849988       -24.10382        -45.18602       -123.3589             -200               0             -200               0
1.67987               -0.3969386       -24.34706        -44.95684       -127.3925             -200               0             -200               0
1.68647               -0.4092726       -24.59324        -44.73556         -131.42             -200               0             -200               0
1.69307                -0.422001       -24.84239        -44.52178        -135.437             -200               0             -200               0
1.69967               -0.4351223        -25.0946        -44.31506       -139.4394             -200               0             -200               0
1.70627                -0.448636       -25.34995        -44.11491       -143.4234             -200               0             -200               0
1.71287               -0.4625421       -25.60853        -43.92082       -147.3853             -200               0             -200               0
1.71947               -0.4768422       -25.87048         -43.7322       -151.3218             -200               0             -200               0
1.72607               -0.4915394       -26.13593        -43.54844         -155.23             -200               0             -200               0
1.73267               -0.5066376       -26.40503         -43.3689       -159.1073             -200               0             -200               0
1.73927                -0.522145       -26.67796        -43.19289       -162.9515             -200               0             -200               0
1.74587               -0.5380721        -26.9549        -43.01966       -166.7606             -200               0             -200               0
1.75248               -0.5544317       -27.23605        -42.84846       -170.5334             -200               0             -200               0
1.75908               -0.5712393       -27.52161        -42.67851       -174.2689             -200               0             -200               0
1.76568               -0.5885147        -27.8118        -42.50898       -177.9669             -200               0             -200               0
1.77228                -0.606283       -28.10683        -42.33905        178.3725             -200               0             -200               0
1.77888                -0.624571       -28.40692         -42.1679        174.7483             -200               0             -200               0
1.78548               -0.6434092       -28.71229        -41.99469        171.1592             -200               0             -200               0
1.79208               -0.6628333       -29.02316        -41.81863         167.603             -200               0             -200               0
1.79868               -0.6828811       -29.33973        -41.63893        164.0769             -200               0             -200               0
1.80528                -0.703594        -29.6622        -41.45487        160.5776             -200               0             -200               0
1.81188               -0.7250187       -29.99077        -41.26578         157.101             -200               0             -200               0
1.81848               -0.7472034       -30.32561        -41.07106        153.6426             -200               0             -200               0
1.82508               -0.7701983       -30.66688        -40.87022        150.1972             -200               0             -200               0
1.83168               -0.7940582       -31.01475        -40.66285        146.7596             -200               0             -200               0
1.83828               -0.8188384       -31.36933        -40.44865        143.3237             -200               0             -200               0
1.84488               -0.8445975       -31.73076        -40.22742        139.8838             -200               0             -200               0
1.85149               -0.8713949       -32.09913        -39.99911        136.4337             -200               0             -200               0
1.85809               -0.8992913       -32.47454        -39.76377        132.9675             -200               0             -200               0
1.86469               -0.9283476       -32.85706        -39.52156        129.4792             -200               0             -200               0
1.87129               -0.9586287       -33.24674        -39.27275        125.9633             -200               0             -200               0
1.87789               -0.9901967       -33.64365        -39.01771        122.4144             -200               0             -200               0
1.88449                -1.023117       -34.04783         -38.7569        118.8279             -200               0             -200               0
1.89109                -1.057453        -34.4593        -38.49083        115.1994             -200               0             -200               0
1.89769                -1.093272        -34.8781         -38.2201        111.5251             -200               0             -200               0
1.90429                -1.130636       -35.30427        -37.94533        107.8018             -200               0             -200               0
1.91089                -1.169616       -35.73782        -37.66718        104.0269             -200               0             -200               0
1.91749                -1.210278       -36.17878        -37.38632        100.1984             -200               0             -200               0
1.92409                -1.252692        -36.6272        -37.10344        96.31474             -200               0             -200               0
1.93069                 -1.29693       -37.08311        -36.81921        92.37491             -200               0             -200               0
1.93729                -1.343066       -37.54655        -36.53428        88.37841             -200               0             -200               0
1.94389                -1.391175       -38.01759        -36.24929        84.32515             -200               0             -200               0
1.9505                 -1.441339       -38.49629        -35.96484        80.21544             -200               0             -200               0
1.9571                 -1.493642       -38.98271        -35.68151         76.0499             -200               0             -200               0
1.9637                 -1.548173       -39.47696        -35.39984        71.82945             -200               0             -200               0
1.9703                 -1.605029       -39.97911        -35.12032        67.55525             -200               0             -200               0
1.9769                 -1.664313       -40.48926        -34.84342        63.22865             -200               0             -200               0
1.9835                  -1.72613       -41.00752        -34.56955        58.85116             -200               0             -200               0
1.9901                 -1.790603       -41.53398        -34.29911        54.42444             -200               0             -200               0
1.9967                 -1.857853       -42.06875        -34.03245        49.95019             -200               0             -200               0
2.0033                  -1.92802       -42.61192        -33.76988        45.43023             -200               0             -200               0
2.0099                 -2.001251       -43.16355        -33.51168        40.86638             -200               0             -200               0
2.0165                 -2.077703       -43.72373        -33.25811        36.26051             -200               0             -200               0
2.0231                 -2.157546       -44.29247        -33.00939        31.61445             -200               0             -200               0
2.0297                 -2.240962       -44.86979        -32.76571        26.93007             -200               0             -200               0
2.0363                 -2.328147       -45.45566        -32.52726         22.2092             -200               0             -200               0
2.0429                 -2.419313       -46.04999        -32.29418        17.45363             -200               0             -200               0
2.0495                 -2.514681       -46.65264         -32.0666        12.66513             -200               0             -200               0
2.05611                 -2.61449       -47.26342        -31.84465        7.845389             -200               0             -200               0
2.06271                -2.718994       -47.88207        -31.62841        2.996096             -200               0             -200               0
2.06931                -2.828462       -48.50822        -31.41797       -1.881133             -200               0             -200               0
2.07591                -2.943179       -49.14143        -31.21341        -6.78473             -200               0             -200               0
2.08251                -3.063445       -49.78116        -31.01477       -11.71318             -200               0             -200               0
2.08911                 -3.18958       -50.42675        -30.82212       -16.66502             -200               0             -200               0
2.09571                -3.321917        -51.0774        -30.63548       -21.63882             -200               0             -200               0
2.10231                -3.460809       -51.73219        -30.45489       -26.63324             -200               0             -200               0
2.10891                -3.606625       -52.39006        -30.28038       -31.64696             -200               0             -200               0
2.11551                -3.759757       -53.04974        -30.11196        -36.6787             -200               0             -200               0
2.12211                 -3.92061       -53.70984        -29.94964       -41.72725             -200               0             -200               0
2.12871                -4.089612       -54.36871        -29.79344       -46.79142             -200               0             -200               0
2.13531                -4.267214       -55.02453        -29.64336       -51.87008             -200               0             -200               0
2.14191                -4.453885       -55.67519         -29.4994       -56.96213             -200               0             -200               0
2.14851                -4.650118       -56.31836        -29.36156       -62.06651             -200               0             -200               0
2.15512                -4.856432       -56.95138        -29.22983        -67.1822             -200               0             -200               0
2.16172                 -5.07337       -57.57125        -29.10421       -72.30819             -200               0             -200               0
2.16832                -5.301503       -58.17461        -28.98468       -77.44352             -200               0             -200               0
2.17492                -5.541431       -58.75766        -28.87125       -82.58725             -200               0             -200               0
2.18152                -5.793782       -59.31614         -28.7639       -87.73848             -200               0             -200               0
2.18812                 -6.05922        -59.8452        -28.66261       -92.89632             -200               0             -200               0
2.19472                -6.338439       -60.33936        -28.56738       -98.05989             -200               0             -200               0
2.20132                -6.632169        -60.7924        -28.47819       -103.2284             -200               0             -200               0
2.20792                -6.941173       -61.19722        -28.39504       -108.4009             -200               0             -200               0
2.21452                -7.266247       -61.54576        -28.31789       -113.5767             -200               0             -200               0
2.22112                -7.608214       -61.82867        -28.24676       -118.7549             -200               0             -200               0
2.22772                -7.967926       -62.03526        -28.18161       -123.9348             -200               0             -200               0
2.23432                -8.346239       -62.15313        -28.12243       -129.1155             -200               0             -200               0
2.24092                -8.744008       -62.16786        -28.06922       -134.2964             -200               0             -200               0
2.24752                -9.162051       -62.06266        -28.02196       -139.4766             -200               0             -200               0
2.25413                -9.601104       -61.81784        -27.98063       -144.6554             -200               0             -200               0
2.26073                -10.06177       -61.41031        -27.94523       -149.8321             -200               0             -200               0
2.26733                -10.54438       -60.81293        -27.91573       -155.0058             -200               0             -200               0
2.27393                -11.04893       -59.99377        -27.89213       -160.1758             -200               0             -200               0
2.28053                -11.57477       -58.91542        -27.87442       -165.3414             -200               0             -200               0
2.28713                -12.12039       -57.53437        -27.86258       -170.5017             -200               0             -200               0
2.29373                -12.68297       -55.80067        -27.85659       -175.6561             -200               0             -200               0