! TOUCHSTONE file generated by CST MICROWAVE STUDIO
! Date and time: Tue Mar 18 20:31:44 2025
! Project name: hairline.cst
! Parameters = {B=12.5; D=160; F=25; Feed=2.85625; Fracture=0.5; L=100; M=50; R=0.384908; S=1.5; Theta=90; length=57.125; wave=114.25}
! Header version: 2024
! Port assignment regex: !\s*Touchstone port\s*([0-9]+)\s*=\s*(CST MWS port|CST DES external port|CST DES block port)\s*(.+)\s* \(\"(.*)\"\)(\s*mode\s*([0-9]+))?.*
! Touchstone port assignment:
! Touchstone port 1 = CST MWS port 1 ("")
! Touchstone port 2 = CST MWS port 2 ("")
# GHz S DB R 50
1                    -0.01946226       -9.774628        -70.73021         117.307             -200               0             -200               0
1.00758              -0.02045494       -9.874929        -70.93607        112.2358             -200               0             -200               0
1.01515              -0.02145599       -9.975743        -71.17244         107.338             -200               0             -200               0
1.02273              -0.02246139       -10.07711         -71.4406         102.639             -200               0             -200               0
1.0303               -0.02346498       -10.17906        -71.74174        98.16987             -200               0             -200               0
1.03788              -0.02446129       -10.28164         -72.0768        93.96935             -200               0             -200               0
1.04545              -0.02544995       -10.38492         -72.4462        90.08509             -200               0             -200               0
1.05303              -0.02642417       -10.48893        -72.84947        86.57574             -200               0             -200               0
1.06061              -0.02738574       -10.59375        -73.28459        83.51296             -200               0             -200               0
1.06818              -0.02833281       -10.69943        -73.74701        80.98269             -200               0             -200               0
1.07576              -0.02926597       -10.80604        -74.22821        79.08466             -200               0             -200               0
1.08333               -0.0301878       -10.91365        -74.71377        77.92758             -200               0             -200               0
1.09091              -0.03110038       -11.02231          -75.181        77.61591             -200               0             -200               0
1.09848              -0.03200831        -11.1321        -75.59704        78.22315             -200               0             -200               0
1.10606               -0.0329163       -11.24307        -75.91906         79.7493             -200               0             -200               0
1.11364              -0.03383121       -11.35527        -76.09917        82.07098             -200               0             -200               0
1.12121               -0.0347594       -11.46877        -76.09567        84.91241             -200               0             -200               0
1.12879              -0.03570902       -11.58359         -75.8872        87.87478             -200               0             -200               0
1.13636               -0.0366883       -11.69978        -75.48158         90.5315             -200               0             -200               0
1.14394              -0.03770621       -11.81738        -74.91241        92.54023             -200               0             -200               0
1.15152              -0.03877245        -11.9364        -74.22629        93.70612             -200               0             -200               0
1.15909               -0.0398942       -12.05687        -73.46936        93.97661             -200               0             -200               0
1.16667              -0.04108322        -12.1788        -72.67939        93.39679             -200               0             -200               0
1.17424              -0.04234668       -12.30219        -71.88363        92.06116             -200               0             -200               0
1.18182              -0.04369353       -12.42704        -71.10004        90.07931             -200               0             -200               0
1.18939              -0.04513243       -12.55333        -70.33959        87.55685             -200               0             -200               0
1.19697              -0.04666964       -12.68106        -69.60838        84.58727             -200               0             -200               0
1.20455              -0.04831202       -12.81021        -68.90939        81.24973             -200               0             -200               0
1.21212              -0.05006509       -12.94075        -68.24363        77.60979             -200               0             -200               0
1.2197               -0.05193288       -13.07266        -67.61092        73.72114             -200               0             -200               0
1.22727              -0.05391986       -13.20592        -67.01041        69.62764             -200               0             -200               0
1.23485              -0.05602712        -13.3405        -66.44087        65.36516             -200               0             -200               0
1.24242              -0.05825709       -13.47637        -65.90095        60.96313             -200               0             -200               0
1.25                 -0.06060808       -13.61352        -65.38919        56.44588             -200               0             -200               0
1.25758              -0.06308173       -13.75192         -64.9042        51.83365             -200               0             -200               0
1.26515              -0.06567506       -13.89157        -64.44462        47.14342             -200               0             -200               0
1.27273              -0.06838525       -14.03245         -64.0092        42.38956             -200               0             -200               0
1.2803               -0.07120968       -14.17457        -63.59675        37.58436             -200               0             -200               0
1.28788               -0.0741451       -14.31793        -63.20619        32.73842             -200               0             -200               0
1.29545              -0.07718727       -14.46254         -62.8365        27.86101             -200               0             -200               0
1.30303               -0.0803322       -14.60843        -62.48678        22.96032             -200               0             -200               0
1.31061              -0.08357694       -14.75564        -62.15619        18.04363             -200               0             -200               0
1.31818              -0.08691639       -14.90418        -61.84394        13.11758             -200               0             -200               0
1.32576              -0.09034718       -15.05413        -61.54932        8.188208             -200               0             -200               0
1.33333              -0.09386766       -15.20553        -61.27168        3.261151             -200               0             -200               0
1.34091              -0.09747557       -15.35844        -61.01041       -1.658302             -200               0             -200               0
1.34848               -0.1011708       -15.51294        -60.76493       -6.565108             -200               0             -200               0
1.35606               -0.1049538        -15.6691         -60.5347        -11.4544             -200               0             -200               0
1.36364               -0.1088255         -15.827        -60.31923       -16.32143             -200               0             -200               0
1.37121                 -0.11279       -15.98673        -60.11801       -21.16151             -200               0             -200               0
1.37879               -0.1168506       -16.14836        -59.93057       -25.96996             -200               0             -200               0
1.38636               -0.1210141       -16.31199        -59.75643       -30.74207             -200               0             -200               0
1.39394                -0.125288        -16.4777        -59.59512       -35.47309             -200               0             -200               0
1.40152               -0.1296808       -16.64557        -59.44614       -40.15814             -200               0             -200               0
1.40909               -0.1342021       -16.81569        -59.30898       -44.79226             -200               0             -200               0
1.41667               -0.1388654       -16.98813         -59.1831       -49.37035             -200               0             -200               0
1.42424               -0.1436835       -17.16296        -59.06791       -53.88715             -200               0             -200               0
1.43182               -0.1486677       -17.34024        -58.96279        -58.3373             -200               0             -200               0
1.43939               -0.1538351       -17.52003          -58.867       -62.71528             -200               0             -200               0
1.44697                  -0.1592       -17.70238        -58.77979       -67.01548             -200               0             -200               0
1.45455               -0.1647804       -17.88732        -58.70024       -71.23227             -200               0             -200               0
1.46212               -0.1705904       -18.07489        -58.62738          -75.36             -200               0             -200               0
1.4697                -0.1766474       -18.26511        -58.56008       -79.39315             -200               0             -200               0
1.47727               -0.1829669       -18.45798        -58.49707       -83.32645             -200               0             -200               0
1.48485                -0.189567       -18.65352        -58.43694       -87.15499             -200               0             -200               0
1.49242               -0.1964606        -18.8517        -58.37808       -90.87451             -200               0             -200               0
1.5                    -0.203663       -19.05253        -58.31876       -94.48154             -200               0             -200               0
1.50758               -0.2111883       -19.25599        -58.25704       -97.97374             -200               0             -200               0
1.51515                -0.219048       -19.46204        -58.19084       -101.3502             -200               0             -200               0
1.52273               -0.2272559       -19.67068        -58.11794       -104.6116             -200               0             -200               0
1.5303                -0.2358203       -19.88185        -58.03601       -107.7608             -200               0             -200               0
1.53788               -0.2447503       -20.09554         -57.9427       -110.8031             -200               0             -200               0
1.54545               -0.2540546       -20.31172        -57.83565        -113.746             -200               0             -200               0
1.55303               -0.2637385       -20.53035        -57.71262          -116.6             -200               0             -200               0
1.56061               -0.2738065       -20.75142        -57.57157       -119.3782             -200               0             -200               0
1.56818               -0.2842641       -20.97491        -57.41073       -122.0958             -200               0             -200               0
1.57576               -0.2951128       -21.20081        -57.22872       -124.7706             -200               0             -200               0
1.58333                -0.306355       -21.42912        -57.02459       -127.4217             -200               0             -200               0
1.59091               -0.3179914       -21.65985        -56.79791        -130.069             -200               0             -200               0
1.59848               -0.3300236       -21.89301        -56.54876       -132.7328             -200               0             -200               0
1.60606               -0.3424525       -22.12864        -56.27773       -135.4327             -200               0             -200               0
1.61364               -0.3552775       -22.36678        -55.98589       -138.1868             -200               0             -200               0
1.62121               -0.3684997       -22.60748        -55.67469       -141.0116             -200               0             -200               0
1.62879               -0.3821221       -22.85082        -55.34593        -143.921             -200               0             -200               0
1.63636               -0.3961442       -23.09687        -55.00161       -146.9266             -200               0             -200               0
1.64394               -0.4105708       -23.34572        -54.64388       -150.0371             -200               0             -200               0
1.65152               -0.4254064       -23.59748        -54.27493       -153.2587             -200               0             -200               0
1.65909               -0.4406584       -23.85225        -53.89691       -156.5952             -200               0             -200               0
1.66667               -0.4563344       -24.11017         -53.5119       -160.0484             -200               0             -200               0
1.67424                -0.472444       -24.37137        -53.12186        -163.618             -200               0             -200               0
1.68182               -0.4890003       -24.63598        -52.72856       -167.3025             -200               0             -200               0
1.68939               -0.5060174       -24.90415        -52.33363        -171.099             -200               0             -200               0
1.69697               -0.5235128       -25.17601        -51.93852       -175.0038             -200               0             -200               0
1.70455               -0.5415074       -25.45173        -51.54447       -179.0126             -200               0             -200               0
1.71212               -0.5600221       -25.73144        -51.15259        176.8795             -200               0             -200               0
1.7197                -0.5790823        -26.0153        -50.76383        172.6775             -200               0             -200               0
1.72727               -0.5987152       -26.30344        -50.37897        168.3864             -200               0             -200               0
1.73485               -0.6189492       -26.59599        -49.99868        164.0116             -200               0             -200               0
1.74242               -0.6398176        -26.8931        -49.62353         159.558             -200               0             -200               0
1.75                  -0.6613524       -27.19489        -49.25395        155.0305             -200               0             -200               0
1.75758               -0.6835915       -27.50146        -48.89033        150.4338             -200               0             -200               0
1.76515                -0.706571       -27.81293        -48.53295        145.7726             -200               0             -200               0
1.77273               -0.7303296       -28.12939        -48.18203         141.051             -200               0             -200               0
1.7803                 -0.754908       -28.45092        -47.83776         136.273             -200               0             -200               0
1.78788               -0.7803455        -28.7776        -47.50026        131.4426             -200               0             -200               0
1.79545                -0.806686        -29.1095        -47.16961        126.5631             -200               0             -200               0
1.80303               -0.8339705       -29.44667        -46.84586         121.638             -200               0             -200               0
1.81061               -0.8622431       -29.78916        -46.52905        116.6703             -200               0             -200               0
1.81818               -0.8915458       -30.13702        -46.21918        111.6629             -200               0             -200               0
1.82576               -0.9219222       -30.49028        -45.91624        106.6185             -200               0             -200               0
1.83333                -0.953416       -30.84899        -45.62018        101.5397             -200               0             -200               0
1.84091               -0.9860708       -31.21317        -45.33097        96.42873             -200               0             -200               0
1.84848                 -1.01993       -31.58285        -45.04856        91.28776             -200               0             -200               0
1.85606                -1.055036       -31.95809        -44.77289        86.11882             -200               0             -200               0
1.86364                -1.091435       -32.33891        -44.50388        80.92379             -200               0             -200               0
1.87121                -1.129172       -32.72536        -44.24147        75.70442             -200               0             -200               0
1.87879                -1.168291       -33.11751        -43.98558        70.46233             -200               0             -200               0
1.88636                 -1.20884       -33.51542        -43.73614        65.19904             -200               0             -200               0
1.89394                -1.250867       -33.91916        -43.49307        59.91597             -200               0             -200               0
1.90152                -1.294423       -34.32885        -43.25628        54.61442             -200               0             -200               0
1.90909                 -1.33956       -34.74457         -43.0257        49.29565             -200               0             -200               0
1.91667                -1.386333       -35.16646        -42.80125         43.9608             -200               0             -200               0
1.92424                -1.434804       -35.59466        -42.58285        38.61094             -200               0             -200               0
1.93182                -1.485036       -36.02932        -42.37042         33.2471             -200               0             -200               0
1.93939                -1.537099       -36.47062        -42.16388        27.87021             -200               0             -200               0
1.94697                -1.591065       -36.91873        -41.96317        22.48118             -200               0             -200               0
1.95455                 -1.64702       -37.37386         -41.7682        17.08084             -200               0             -200               0
1.96212                -1.705049       -37.83622         -41.5789        11.66996             -200               0             -200               0
1.9697                  -1.76525       -38.30602        -41.39521        6.249311             -200               0             -200               0
1.97727                -1.827727        -38.7835        -41.21706        0.819573             -200               0             -200               0
1.98485                -1.892596       -39.26887        -41.04437       -4.618584             -200               0             -200               0
1.99242                 -1.95998       -39.76235         -40.8771       -10.06454             -200               0             -200               0
2                      -2.030017       -40.26416        -40.71517       -15.51769             -200               0             -200               0
2.00758                -2.102851       -40.77451        -40.55853       -20.97749             -200               0             -200               0
2.01515                -2.178641       -41.29357        -40.40711       -26.44339             -200               0             -200               0
2.02273                 -2.25756       -41.82153        -40.26087       -31.91489             -200               0             -200               0
2.0303                 -2.339794       -42.35848        -40.11975       -37.39151             -200               0             -200               0
2.03788                -2.425538       -42.90456         -39.9837       -42.87278             -200               0             -200               0
2.04545                -2.515008        -43.4598        -39.85266       -48.35826             -200               0             -200               0
2.05303                -2.608429       -44.02422        -39.72659       -53.84754             -200               0             -200               0
2.06061                -2.706046       -44.59775        -39.60545        -59.3402             -200               0             -200               0
2.06818                -2.808116       -45.18029        -39.48919       -64.83586             -200               0             -200               0
2.07576                -2.914915       -45.77164        -39.37777       -70.33414             -200               0             -200               0
2.08333                -3.026735       -46.37155        -39.27115       -75.83469             -200               0             -200               0
2.09091                -3.143883       -46.97965        -39.16928       -81.33716             -200               0             -200               0
2.09848                 -3.26669       -47.59548        -39.07214        -86.8412             -200               0             -200               0
2.10606                  -3.3955       -48.21849        -38.97969       -92.34651             -200               0             -200               0
2.11364                -3.530679       -48.84799        -38.89189       -97.85275             -200               0             -200               0
2.12121                -3.672616       -49.48319        -38.80871       -103.3596             -200               0             -200               0
2.12879                -3.821719       -50.12312        -38.73012       -108.8668             -200               0             -200               0
2.13636                -3.978421       -50.76669        -38.65609       -114.3741             -200               0             -200               0
2.14394                -4.143179       -51.41263        -38.58661       -119.8811             -200               0             -200               0
2.15152                -4.316479       -52.05948        -38.52162       -125.3876             -200               0             -200               0
2.15909                -4.498834       -52.70556        -38.46113       -130.8933             -200               0             -200               0
2.16667                 -4.69079       -53.34898        -38.40509        -136.398             -200               0             -200               0
2.17424                -4.892928       -53.98758         -38.3535       -141.9013             -200               0             -200               0
2.18182                -5.105868        -54.6189        -38.30632        -147.403             -200               0             -200               0
2.18939                -5.330269       -55.24016        -38.26354       -152.9029             -200               0             -200               0
2.19697                -5.566839       -55.84818        -38.22514       -158.4007             -200               0             -200               0
2.20455                -5.816338       -56.43936        -38.19111       -163.8961             -200               0             -200               0
2.21212                -6.079583       -57.00956        -38.16143       -169.3889             -200               0             -200               0
2.2197                 -6.357455       -57.55408        -38.13608       -174.8789             -200               0             -200               0
2.22727                -6.650905       -58.06745        -38.11505        179.6343             -200               0             -200               0
2.23485                -6.960965       -58.54344        -38.09833        174.1509             -200               0             -200               0
2.24242                -7.288754       -58.97475        -38.08591         168.671             -200               0             -200               0
2.25                   -7.635484       -59.35287        -38.07777         163.195             -200               0             -200               0
2.25758                -8.002477       -59.66785        -38.07392        157.7232             -200               0             -200               0
2.26515                -8.391161       -59.90786        -38.07433        152.2558             -200               0             -200               0
2.27273                -8.803086       -60.05888        -38.07901        146.7929             -200               0             -200               0
2.2803                 -9.239916       -60.10406        -38.08795         141.335             -200               0             -200               0
2.28788                 -9.70342       -60.02308        -38.10113        135.8823             -200               0             -200               0
2.29545                -10.19545        -59.7912        -38.11857         130.435             -200               0             -200               0
2.30303                -10.71789       -59.37809        -38.14025        124.9934             -200               0             -200               0
2.31061                -11.27253       -58.74633        -38.16617        119.5577             -200               0             -200               0
2.31818                -11.86094       -57.84947        -38.19633        114.1284             -200               0             -200               0
2.32576                 -12.4841       -56.62967        -38.23074        108.7056             -200               0             -200               0
2.33333                -13.14194       -55.01489        -38.26938        103.2896             -200               0             -200               0
2.34091                -13.83245         -52.916        -38.31226        97.88073             -200               0             -200               0
2.34848                -14.55035       -50.22449        -38.35938        92.47932             -200               0             -200               0
2.35606                -15.28503       -46.81303        -38.41075        87.08567             -200               0             -200               0
2.36364                -16.01763       -42.54268        -38.46636        81.70008             -200               0             -200               0
2.37121                -16.71765        -37.2839        -38.52623        76.32289             -200               0             -200               0
2.37879                -17.34045       -30.95978        -38.59034        70.95443             -200               0             -200               0
2.38636                -17.82893       -23.61321        -38.65872        65.59504             -200               0             -200               0
2.39394                -18.12384       -15.47514        -38.73136        60.24508             -200               0             -200               0
2.40152                -18.18297       -6.977354        -38.80827        54.90491             -200               0             -200               0
2.40909                -17.99961        1.340737        -38.88945        49.57491             -200               0             -200               0
2.41667                -17.60581        8.996502        -38.97492        44.25546             -200               0             -200               0
2.42424                -17.05759        15.68978        -39.06467        38.94696             -200               0             -200               0
2.43182                -16.41431        21.32215        -39.15871        33.64983             -200               0             -200               0
2.43939                 -15.7252        25.93942        -39.25706        28.36448             -200               0             -200               0
2.44697                -15.02518         29.6598        -39.35972        23.09135             -200               0             -200               0
2.45455                -14.33652        32.62231         -39.4667        17.83091             -200               0             -200               0
2.46212                -13.67212        34.95928        -39.57799        12.58361             -200               0             -200               0
2.4697                 -13.03871        36.78556        -39.69362        7.349942             -200               0             -200               0
2.47727                -12.43913        38.19632        -39.81358        2.130404             -200               0             -200               0
2.48485                -11.87394        39.26874        -39.93789       -3.074484             -200               0             -200               0