! TOUCHSTONE file generated by CST MICROWAVE STUDIO
! Date and time: Tue Mar 18 20:31:42 2025
! Project name: hairline.cst
! Parameters = {B=12.5; D=160; F=15; Feed=2.85625; Fracture=0.5; L=100; M=50; R=0.384908; S=1.5; Theta=90; length=57.125; wave=114.25}
! Header version: 2024
! Port assignment regex: !\s*Touchstone port\s*([0-9]+)\s*=\s*(CST MWS port|CST DES external port|CST DES block port)\s*(.+)\s* \(\"(.*)\"\)(\s*mode\s*([0-9]+))?.*
! Touchstone port assignment:
! Touchstone port 1 = CST MWS port 1 ("")
! Touchstone port 2 = CST MWS port 2 ("")
# GHz S DB R 50
1                    -0.02009588       -9.757043        -68.77684        162.8247             -200               0             -200               0
1.00658              -0.02088396       -9.844392        -68.69429        157.4843             -200               0             -200               0
1.01316              -0.02169264       -9.932207        -68.64068        152.2365             -200               0             -200               0
1.01974              -0.02252048       -10.02049          -68.616        147.0894             -200               0             -200               0
1.02632              -0.02336459       -10.10927        -68.62033         142.053             -200               0             -200               0
1.03289              -0.02422379       -10.19854        -68.65382         137.139             -200               0             -200               0
1.03947              -0.02509564       -10.28833        -68.71664        132.3614             -200               0             -200               0
1.04605              -0.02597868       -10.37867        -68.80895        127.7369             -200               0             -200               0
1.05263              -0.02686975       -10.46957        -68.93083        123.2852             -200               0             -200               0
1.05921              -0.02777095       -10.56107        -69.08224        119.0297             -200               0             -200               0
1.06579                 -0.02868       -10.65318         -69.2628        114.9981             -200               0             -200               0
1.07237              -0.02959778       -10.74594        -69.47172        111.2231             -200               0             -200               0
1.07895              -0.03052512       -10.83937        -69.70748        107.7428             -200               0             -200               0
1.08553              -0.03146281       -10.93351         -69.9675        104.6014             -200               0             -200               0
1.09211              -0.03241376       -11.02839        -70.24768        101.8485             -200               0             -200               0
1.09868              -0.03337767       -11.12403        -70.54178        99.53867             -200               0             -200               0
1.10526              -0.03435917       -11.22045        -70.84069        97.72793             -200               0             -200               0
1.11184              -0.03536055       -11.31769        -71.13165        96.46811             -200               0             -200               0
1.11842              -0.03638549       -11.41575        -71.39768         95.7971             -200               0             -200               0
1.125                -0.03743604       -11.51467        -71.61761        95.72479             -200               0             -200               0
1.13158              -0.03851797       -11.61444        -71.76725        96.21624             -200               0             -200               0
1.13816              -0.03963461        -11.7151        -71.82235        97.17738             -200               0             -200               0
1.14474               -0.0407899       -11.81663        -71.76292        98.45132             -200               0             -200               0
1.15132              -0.04198665       -11.91905        -71.57803        99.83293             -200               0             -200               0
1.15789              -0.04322804       -12.02236        -71.26877        101.1013             -200               0             -200               0
1.16447              -0.04451819       -12.12657        -70.84789        102.0585             -200               0             -200               0
1.17105              -0.04586135       -12.23165        -70.33633        102.5593             -200               0             -200               0
1.17763              -0.04725709       -12.33762        -69.75844         102.522             -200               0             -200               0
1.18421              -0.04870869       -12.44447        -69.13774        101.9219             -200               0             -200               0
1.19079               -0.0502175       -12.55218        -68.49443        100.7759             -200               0             -200               0
1.19737              -0.05178413       -12.66076         -67.8444        99.12602             -200               0             -200               0
1.20395              -0.05340869       -12.77019        -67.19939        97.02627             -200               0             -200               0
1.21053              -0.05509242       -12.88047        -66.56764        94.53344             -200               0             -200               0
1.21711              -0.05683385        -12.9916        -65.95465         91.7021             -200               0             -200               0
1.22368              -0.05863175       -13.10358        -65.36386          88.582             -200               0             -200               0
1.23026              -0.06048449        -13.2164        -64.79731        85.21719             -200               0             -200               0
1.23684              -0.06239175       -13.33008          -64.256        81.64594             -200               0             -200               0
1.24342               -0.0643493       -13.44462        -63.74026        77.90129             -200               0             -200               0
1.25                 -0.06635543       -13.56005        -63.24996        74.01157             -200               0             -200               0
1.25658              -0.06840906       -13.67637        -62.78471        70.00112             -200               0             -200               0
1.26316              -0.07050787       -13.79362         -62.3439        65.89092             -200               0             -200               0
1.26974              -0.07264859       -13.91181        -61.92683         61.6991             -200               0             -200               0
1.27632              -0.07483204       -14.03098        -61.53276        57.44144             -200               0             -200               0
1.28289              -0.07705549       -14.15117        -61.16092        53.13181             -200               0             -200               0
1.28947              -0.07931933       -14.27242        -60.81053        48.78247             -200               0             -200               0
1.29605              -0.08162162       -14.39476        -60.48082        44.40436             -200               0             -200               0
1.30263              -0.08396459       -14.51825        -60.17105        40.00739             -200               0             -200               0
1.30921              -0.08634984       -14.64292         -59.8805        35.60057             -200               0             -200               0
1.31579              -0.08877865       -14.76884        -59.60846        31.19223             -200               0             -200               0
1.32237              -0.09125249       -14.89604        -59.35423         26.7901             -200               0             -200               0
1.32895              -0.09377755       -15.02457        -59.11715        22.40149             -200               0             -200               0
1.33553              -0.09635784       -15.15448        -58.89652        18.03337             -200               0             -200               0
1.34211              -0.09899582       -15.28582        -58.69168        13.69241             -200               0             -200               0
1.34868               -0.1017009       -15.41862        -58.50193        9.385074             -200               0             -200               0
1.35526                -0.104477       -15.55293        -58.32659        5.117655             -200               0             -200               0
1.36184               -0.1073303       -15.68878        -58.16491       0.8963228             -200               0             -200               0
1.36842               -0.1102695        -15.8262        -58.01612       -3.272869             -200               0             -200               0
1.375                 -0.1133022       -15.96521        -57.87942       -7.383975             -200               0             -200               0
1.38158               -0.1164349       -16.10584        -57.75392       -11.43117             -200               0             -200               0
1.38816               -0.1196749       -16.24811        -57.63868       -15.40877             -200               0             -200               0
1.39474               -0.1230296       -16.39203        -57.53268        -19.3113             -200               0             -200               0
1.40132               -0.1265077       -16.53761         -57.4348       -23.13354             -200               0             -200               0
1.40789               -0.1301159       -16.68484        -57.34381       -26.87065             -200               0             -200               0
1.41447                -0.133859       -16.83374        -57.25838       -30.51824             -200               0             -200               0
1.42105               -0.1377429        -16.9843        -57.17707       -34.07258             -200               0             -200               0
1.42763               -0.1417753       -17.13652        -57.09832       -37.53071             -200               0             -200               0
1.43421               -0.1459585       -17.29039        -57.02046       -40.89065             -200               0             -200               0
1.44079                -0.150298       -17.44591         -56.9417       -44.15161             -200               0             -200               0
1.44737                -0.154797       -17.60308         -56.8602        -47.3142             -200               0             -200               0
1.45395               -0.1594578        -17.7619        -56.77406       -50.38062             -200               0             -200               0
1.46053               -0.1642814       -17.92235        -56.68135       -53.35482             -200               0             -200               0
1.46711               -0.1692711       -18.08445        -56.58019       -56.24266             -200               0             -200               0
1.47368               -0.1744276        -18.2482         -56.4688       -59.05194             -200               0             -200               0
1.48026               -0.1797522       -18.41362        -56.34552       -61.79238             -200               0             -200               0
1.48684               -0.1852431       -18.58071        -56.20892       -64.47549             -200               0             -200               0
1.49342               -0.1909023       -18.74951        -56.05785       -67.11428             -200               0             -200               0
1.5                   -0.1967308       -18.92004        -55.89147         -69.723             -200               0             -200               0
1.50658               -0.2027265       -19.09233         -55.7093       -72.31662             -200               0             -200               0
1.51316               -0.2088908       -19.26643        -55.51123       -74.91038             -200               0             -200               0
1.51974               -0.2152263       -19.44237        -55.29756       -77.51926             -200               0             -200               0
1.52632               -0.2217336       -19.62021        -55.06892       -80.15751             -200               0             -200               0
1.53289               -0.2284163           -19.8        -54.82625       -82.83817             -200               0             -200               0
1.53947                -0.235274        -19.9818        -54.57079       -85.57279             -200               0             -200               0
1.54605               -0.2423151       -20.16568        -54.30398        -88.3711             -200               0             -200               0
1.55263               -0.2495425        -20.3517        -54.02739       -91.24093             -200               0             -200               0
1.55921               -0.2569623       -20.53993        -53.74269       -94.18819             -200               0             -200               0
1.56579               -0.2645821       -20.73043        -53.45158       -97.21686             -200               0             -200               0
1.57237               -0.2724093       -20.92328        -53.15573       -100.3292             -200               0             -200               0
1.57895               -0.2804533       -21.11854        -52.85677       -103.5258             -200               0             -200               0
1.58553               -0.2887241       -21.31628         -52.5562        -106.806             -200               0             -200               0
1.59211               -0.2972341       -21.51656        -52.25545       -110.1679             -200               0             -200               0
1.59868               -0.3059949       -21.71943        -51.95579       -113.6086             -200               0             -200               0
1.60526               -0.3150185       -21.92494        -51.65839       -117.1245             -200               0             -200               0
1.61184               -0.3243179       -22.13316        -51.36427       -120.7114             -200               0             -200               0
1.61842               -0.3339074       -22.34412        -51.07431       -124.3646             -200               0             -200               0
1.625                 -0.3438001       -22.55786         -50.7893       -128.0792             -200               0             -200               0
1.63158               -0.3540107       -22.77441        -50.50988       -131.8501             -200               0             -200               0
1.63816               -0.3645539        -22.9938         -50.2366       -135.6719             -200               0             -200               0
1.64474               -0.3754426       -23.21606         -49.9699       -139.5396             -200               0             -200               0
1.65132               -0.3866914        -23.4412        -49.71013       -143.4476             -200               0             -200               0
1.65789                -0.398313       -23.66924        -49.45758        -147.391             -200               0             -200               0
1.66447               -0.4103198       -23.90019        -49.21244       -151.3645             -200               0             -200               0
1.67105               -0.4227249       -24.13406        -48.97482        -155.363             -200               0             -200               0
1.67763               -0.4355387       -24.37087         -48.7448       -159.3818             -200               0             -200               0
1.68421                -0.448773       -24.61063        -48.52239        -163.416             -200               0             -200               0
1.69079               -0.4624365       -24.85335        -48.30752        -167.461             -200               0             -200               0
1.69737                 -0.47654       -25.09904        -48.10011       -171.5122             -200               0             -200               0
1.70395               -0.4910914       -25.34774            -47.9       -175.5654             -200               0             -200               0
1.71053                  -0.5061       -25.59946        -47.70699       -179.6162             -200               0             -200               0
1.71711               -0.5215739       -25.85425        -47.52084        176.3394             -200               0             -200               0
1.72368               -0.5375203       -26.11214        -47.34127        172.3053             -200               0             -200               0
1.73026               -0.5539468       -26.37318        -47.16794        168.2853             -200               0             -200               0
1.73684               -0.5708631       -26.63744        -47.00047        164.2829             -200               0             -200               0
1.74342               -0.5882775       -26.90499        -46.83844        160.3015             -200               0             -200               0
1.75                  -0.6061991        -27.1759        -46.68138        156.3443             -200               0             -200               0
1.75658               -0.6246384       -27.45027        -46.52879        152.4143             -200               0             -200               0
1.76316               -0.6436048       -27.72818        -46.38009         148.514             -200               0             -200               0
1.76974               -0.6631153       -28.00976         -46.2347        144.6459             -200               0             -200               0
1.77632               -0.6831808       -28.29512        -46.09196        140.8119             -200               0             -200               0
1.78289               -0.7038179       -28.58438         -45.9512        137.0137             -200               0             -200               0
1.78947                -0.725047       -28.87768        -45.81169        133.2525             -200               0             -200               0
1.79605               -0.7468876       -29.17514        -45.67268        129.5291             -200               0             -200               0
1.80263               -0.7693618       -29.47691         -45.5334        125.8437             -200               0             -200               0
1.80921               -0.7924961       -29.78314        -45.39304        122.1959             -200               0             -200               0
1.81579               -0.8163175       -30.09396        -45.25082         118.585             -200               0             -200               0
1.82237               -0.8408567       -30.40951        -45.10591        115.0092             -200               0             -200               0
1.82895                -0.866146       -30.72995        -44.95754        111.4665             -200               0             -200               0
1.83553               -0.8922209        -31.0554        -44.80496        107.9541             -200               0             -200               0
1.84211               -0.9191198         -31.386        -44.64745        104.4685             -200               0             -200               0
1.84868               -0.9468826       -31.72187        -44.48434        101.0055             -200               0             -200               0
1.85526               -0.9755491       -32.06314        -44.31507        97.56071             -200               0             -200               0
1.86184                -1.005167       -32.40991        -44.13913        94.12884             -200               0             -200               0
1.86842                -1.035779       -32.76228        -43.95612        90.70439             -200               0             -200               0
1.875                  -1.067435       -33.12036        -43.76576        87.28148             -200               0             -200               0
1.88158                -1.100183       -33.48422        -43.56786        83.85404             -200               0             -200               0
1.88816                -1.134073       -33.85395        -43.36236         80.4159             -200               0             -200               0
1.89474                -1.169159        -34.2296        -43.14933        76.96092             -200               0             -200               0
1.90132                -1.205492       -34.61126        -42.92894        73.48311             -200               0             -200               0
1.90789                -1.243125       -34.99897        -42.70148        69.97675             -200               0             -200               0
1.91447                -1.282115       -35.39279        -42.46732        66.43645             -200               0             -200               0
1.92105                -1.322515       -35.79277        -42.22693         62.8573             -200               0             -200               0
1.92763                -1.364384       -36.19896        -41.98087        59.23485             -200               0             -200               0
1.93421                 -1.40778       -36.61141        -41.72972        55.56525             -200               0             -200               0
1.94079                -1.452759       -37.03017        -41.47415        51.84519             -200               0             -200               0
1.94737                -1.499386        -37.4553        -41.21482        48.07197             -200               0             -200               0
1.95395                 -1.54772       -37.88685        -40.95244        44.24346             -200               0             -200               0
1.96053                -1.597826       -38.32492         -40.6877        40.35808             -200               0             -200               0
1.96711                -1.649771       -38.76957        -40.42129         36.4148             -200               0             -200               0
1.97368                -1.703628       -39.22089         -40.1539        32.41307             -200               0             -200               0
1.98026                -1.759467         -39.679        -39.88618        28.35276             -200               0             -200               0
1.98684                -1.817369       -40.14399        -39.61876        24.23414             -200               0             -200               0
1.99342                -1.877416       -40.61598        -39.35221        20.05785             -200               0             -200               0
2                      -1.939696       -41.09512        -39.08711        15.82478             -200               0             -200               0
2.00658                -2.004306       -41.58156        -38.82397         11.5361             -200               0             -200               0
2.01316                -2.071347       -42.07544        -38.56326        7.193153             -200               0             -200               0
2.01974                -2.140928       -42.57693        -38.30542        2.797474             -200               0             -200               0
2.02632                 -2.21317       -43.08618        -38.05085       -1.649293             -200               0             -200               0
2.03289                -2.288203       -43.60336        -37.79992       -6.145412             -200               0             -200               0
2.03947                -2.366163       -44.12863        -37.55294       -10.68908             -200               0             -200               0
2.04605                -2.447202       -44.66215        -37.31023       -15.27844             -200               0             -200               0
2.05263                -2.531481       -45.20405        -37.07203       -19.91163             -200               0             -200               0
2.05921                -2.619178       -45.75444        -36.83858       -24.58679             -200               0             -200               0
2.06579                -2.710478       -46.31344         -36.6101       -29.30205             -200               0             -200               0
2.07237                -2.805588       -46.88109        -36.38675       -34.05558             -200               0             -200               0
2.07895                -2.904725       -47.45744        -36.16871       -38.84558             -200               0             -200               0
2.08553                -3.008121       -48.04245        -35.95611       -43.67027             -200               0             -200               0
2.09211                -3.116031       -48.63605        -35.74907       -48.52794             -200               0             -200               0
2.09868                -3.228719       -49.23811        -35.54771       -53.41691             -200               0             -200               0
2.10526                -3.346471       -49.84844         -35.3521       -58.33558             -200               0             -200               0
2.11184                -3.469593       -50.46673        -35.16233       -63.28236             -200               0             -200               0
2.11842                 -3.59841        -51.0926        -34.97846       -68.25575             -200               0             -200               0
2.125                  -3.733264       -51.72559        -34.80055       -73.25428             -200               0             -200               0
2.13158                -3.874523       -52.36512        -34.62864       -78.27654             -200               0             -200               0
2.13816                -4.022575       -53.01046        -34.46277       -83.32119             -200               0             -200               0
2.14474                -4.177831       -53.66078        -34.30298       -88.38691             -200               0             -200               0
2.15132                -4.340731       -54.31508        -34.14928       -93.47244             -200               0             -200               0
2.15789                -4.511736        -54.9722        -34.00169       -98.57659             -200               0             -200               0
2.16447                -4.691343       -55.63079        -33.86024       -103.6982             -200               0             -200               0
2.17105                -4.880074       -56.28932        -33.72493       -108.8361             -200               0             -200               0
2.17763                -5.078487       -56.94599        -33.59576       -113.9893             -200               0             -200               0
2.18421                -5.287177        -57.5988        -33.47276       -119.1566             -200               0             -200               0
2.19079                -5.506781       -58.24541         -33.3559       -124.3372             -200               0             -200               0
2.19737                -5.737976        -58.8832         -33.2452         -129.53             -200               0             -200               0
2.20395                -5.981492       -59.50914        -33.14066        -134.734             -200               0             -200               0
2.21053                -6.238113       -60.11981        -33.04227       -139.9485             -200               0             -200               0
2.21711                -6.508683       -60.71126        -32.95003       -145.1724             -200               0             -200               0
2.22368                -6.794115       -61.27898        -32.86394        -150.405             -200               0             -200               0
2.23026                  -7.0954       -61.81779        -32.78398       -155.6454             -200               0             -200               0
2.23684                -7.413609       -62.32167        -32.71017       -160.8927             -200               0             -200               0
2.24342                -7.749914       -62.78365        -32.64248       -166.1463             -200               0             -200               0
2.25                   -8.105594       -63.19557        -32.58093       -171.4052             -200               0             -200               0
2.25658                -8.482046       -63.54789        -32.52549       -176.6688             -200               0             -200               0
2.26316                -8.880792       -63.82926        -32.47618        178.0636             -200               0             -200               0
2.26974                -9.303506       -64.02617        -32.43299         172.793             -200               0             -200               0
2.27632                -9.752002        -64.1224        -32.39591        167.5198             -200               0             -200               0
2.28289                -10.22825        -64.0983        -32.36494         162.245             -200               0             -200               0
2.28947                -10.73436       -63.92985        -32.34008        156.9691             -200               0             -200               0