! TOUCHSTONE file generated by CST MICROWAVE STUDIO
! Date and time: Tue Mar 18 20:31:53 2025
! Project name: hairline.cst
! Parameters = {B=12.5; D=160; F=15; Feed=2.85625; Fracture=2; L=100; M=30; R=0.384908; S=1.5; Theta=270; length=57.125; wave=114.25}
! Header version: 2024
! Port assignment regex: !\s*Touchstone port\s*([0-9]+)\s*=\s*(CST MWS port|CST DES external port|CST DES block port)\s*(.+)\s* \(\"(.*)\"\)(\s*mode\s*([0-9]+))?.*
! Touchstone port assignment:
! Touchstone port 1 = CST MWS port 1 ("")
! Touchstone port 2 = CST MWS port 2 ("")
# GHz S DB R 50
1                    -0.02152276       -9.989178        -66.30021        174.2128             -200               0             -200               0
1.00658              -0.02216087       -10.07644        -66.34024        168.4955             -200               0             -200               0
1.01316              -0.02278363       -10.16432        -66.41667         162.886             -200               0             -200               0
1.01974              -0.02339307       -10.25286        -66.53106        157.3947             -200               0             -200               0
1.02632              -0.02399221        -10.3421        -66.68524        152.0351             -200               0             -200               0
1.03289              -0.02458417       -10.43208        -66.88145        146.8247             -200               0             -200               0
1.03947              -0.02517417       -10.52285        -67.12226        141.7857             -200               0             -200               0
1.04605              -0.02576601       -10.61444        -67.41065        136.9473             -200               0             -200               0
1.05263              -0.02636674       -10.70688           -67.75        132.3469             -200               0             -200               0
1.05921              -0.02698245       -10.80018        -68.14402        128.0339             -200               0             -200               0
1.06579              -0.02761893       -10.89438        -68.59661        124.0732             -200               0             -200               0
1.07237              -0.02828322       -10.98947        -69.11145        120.5517             -200               0             -200               0
1.07895                -0.028983       -11.08546        -69.69118        117.5857             -200               0             -200               0
1.08553              -0.02972459       -11.18236        -70.33583        115.3314             -200               0             -200               0
1.09211              -0.03051294       -11.28014        -71.03958        113.9962             -200               0             -200               0
1.09868              -0.03135474       -11.37881        -71.78505        113.8454             -200               0             -200               0
1.10526              -0.03225527       -11.47833        -72.53358        115.1885             -200               0             -200               0
1.11184               -0.0332185       -11.57869        -73.21252        118.3066             -200               0             -200               0
1.11842              -0.03424783       -11.67985        -73.70796         123.273             -200               0             -200               0
1.125                -0.03534636       -11.78179        -73.88527        129.6873             -200               0             -200               0
1.13158              -0.03651507       -11.88448        -73.65312          136.57             -200               0             -200               0
1.13816              -0.03775459       -11.98789        -73.02711        142.7199             -200               0             -200               0
1.14474              -0.03906487       -12.09198        -72.11782        147.2992             -200               0             -200               0
1.15132              -0.04044323       -12.19672        -71.05869        150.0586             -200               0             -200               0
1.15789                -0.041889        -12.3021        -69.95273        151.1524             -200               0             -200               0
1.16447              -0.04339624       -12.40809        -68.86202        150.8822             -200               0             -200               0
1.17105              -0.04496238       -12.51467        -67.81812          149.55             -200               0             -200               0
1.17763              -0.04658255       -12.62184        -66.83432        147.4065             -200               0             -200               0
1.18421              -0.04825122       -12.72959        -65.91419        144.6454             -200               0             -200               0
1.19079              -0.04996256       -12.83792        -65.05652        141.4122             -200               0             -200               0
1.19737               -0.0517099       -12.94685        -64.25801        137.8156             -200               0             -200               0
1.20395              -0.05348891        -13.0564        -63.51459        133.9375             -200               0             -200               0
1.21053              -0.05529395       -13.16659         -62.8221        129.8399             -200               0             -200               0
1.21711              -0.05711857       -13.27745        -62.17657        125.5705             -200               0             -200               0
1.22368              -0.05895911       -13.38903         -61.5744        121.1664             -200               0             -200               0
1.23026              -0.06081164       -13.50138        -61.01234        116.6572             -200               0             -200               0
1.23684              -0.06267371       -13.61455         -60.4875        112.0664             -200               0             -200               0
1.24342              -0.06454302       -13.72859        -59.99735        107.4134             -200               0             -200               0
1.25                 -0.06641721       -13.84357        -59.53963        102.7143             -200               0             -200               0
1.25658              -0.06829899       -13.95955        -59.11235        97.98244             -200               0             -200               0
1.26316              -0.07018884       -14.07659        -58.71375        93.22955             -200               0             -200               0
1.26974              -0.07208939       -14.19475        -58.34226        88.46574             -200               0             -200               0
1.27632              -0.07400536        -14.3141        -57.99651        83.70002             -200               0             -200               0
1.28289              -0.07594103        -14.4347        -57.67523        78.94055             -200               0             -200               0
1.28947              -0.07790234        -14.5566        -57.37729        74.19486             -200               0             -200               0
1.29605              -0.07989765       -14.67984        -57.10168           69.47             -200               0             -200               0
1.30263              -0.08193361       -14.80448        -56.84744        64.77272             -200               0             -200               0
1.30921              -0.08401913       -14.93055         -56.6137        60.10956             -200               0             -200               0
1.31579              -0.08616354       -15.05807        -56.39963        55.48694             -200               0             -200               0
1.32237              -0.08837511       -15.18708        -56.20444        50.91128             -200               0             -200               0
1.32895              -0.09066355       -15.31757        -56.02734        46.38902             -200               0             -200               0
1.33553              -0.09303704       -15.44957        -55.86757         41.9267             -200               0             -200               0
1.34211              -0.09550525       -15.58306        -55.72433          37.531             -200               0             -200               0
1.34868              -0.09807506       -15.71804        -55.59679        33.20878             -200               0             -200               0
1.35526               -0.1007536       -15.85449        -55.48409        28.96705             -200               0             -200               0
1.36184                -0.103548       -15.99239        -55.38527        24.81303             -200               0             -200               0
1.36842               -0.1064628       -16.13173        -55.29929        20.75404             -200               0             -200               0
1.375                 -0.1095023       -16.27247        -55.22499        16.79755             -200               0             -200               0
1.38158               -0.1126683       -16.41459        -55.16107        12.95096             -200               0             -200               0
1.38816               -0.1159629       -16.55805        -55.10606        9.221594             -200               0             -200               0
1.39474               -0.1193861       -16.70284        -55.05831        5.616427             -200               0             -200               0
1.40132               -0.1229361       -16.84893        -55.01595        2.141901             -200               0             -200               0
1.40789               -0.1266123       -16.99631         -54.9769       -1.196396             -200               0             -200               0
1.41447               -0.1304099       -17.14496        -54.93883       -4.394089             -200               0             -200               0
1.42105               -0.1343251       -17.29489         -54.8992       -7.448427             -200               0             -200               0
1.42763               -0.1383527       -17.44609        -54.85525       -10.35875             -200               0             -200               0
1.43421               -0.1424876       -17.59858        -54.80406       -13.12697             -200               0             -200               0
1.44079               -0.1467237       -17.75238        -54.74263       -15.75801             -200               0             -200               0
1.44737               -0.1510546       -17.90754        -54.66793       -18.26021             -200               0             -200               0
1.45395               -0.1554758        -18.0641        -54.57706       -20.64551             -200               0             -200               0
1.46053               -0.1599816       -18.22211        -54.46733       -22.92952             -200               0             -200               0
1.46711               -0.1645665       -18.38164        -54.33647       -25.13126             -200               0             -200               0
1.47368               -0.1692289       -18.54277        -54.18268       -27.27265             -200               0             -200               0
1.48026               -0.1739643       -18.70559        -54.00482        -29.3777             -200               0             -200               0
1.48684               -0.1787734       -18.87019        -53.80243       -31.47154             -200               0             -200               0
1.49342                -0.183656       -19.03667        -53.57576       -33.57925             -200               0             -200               0
1.5                   -0.1886145       -19.20513        -53.32577       -35.72474             -200               0             -200               0
1.50658               -0.1936528       -19.37569        -53.05403        -37.9298             -200               0             -200               0
1.51316               -0.1987784       -19.54845        -52.76261       -40.21325             -200               0             -200               0
1.51974               -0.2039966       -19.72353        -52.45396       -42.59046             -200               0             -200               0
1.52632               -0.2093198       -19.90103        -52.13075       -45.07314             -200               0             -200               0
1.53289               -0.2147574       -20.08105        -51.79575       -47.66933             -200               0             -200               0
1.53947               -0.2203247        -20.2637        -51.45172       -50.38368             -200               0             -200               0
1.54605               -0.2260347       -20.44906         -51.1013       -53.21779             -200               0             -200               0
1.55263               -0.2319048       -20.63722        -50.74695       -56.17072             -200               0             -200               0
1.55921               -0.2379517       -20.82824        -50.39093       -59.23941             -200               0             -200               0
1.56579               -0.2441925        -21.0222        -50.03522       -62.41919             -200               0             -200               0
1.57237               -0.2506489       -21.21914        -49.68159       -65.70417             -200               0             -200               0
1.57895               -0.2573374        -21.4191        -49.33153       -69.08763             -200               0             -200               0
1.58553               -0.2642758        -21.6221        -48.98632        -72.5623             -200               0             -200               0
1.59211                -0.271486       -21.82818        -48.64702       -76.12061             -200               0             -200               0
1.59868               -0.2789839       -22.03732         -48.3145       -79.75489             -200               0             -200               0
1.60526               -0.2867873       -22.24954        -47.98944       -83.45747             -200               0             -200               0
1.61184               -0.2949112       -22.46481        -47.67239       -87.22084             -200               0             -200               0
1.61842               -0.3033718       -22.68312        -47.36375       -91.03766             -200               0             -200               0
1.625                 -0.3121818       -22.90445        -47.06381       -94.90087             -200               0             -200               0
1.63158               -0.3213525       -23.12878        -46.77274       -98.80364             -200               0             -200               0
1.63816               -0.3308943       -23.35607        -46.49064       -102.7395             -200               0             -200               0
1.64474               -0.3408138       -23.58631        -46.21752       -106.7021             -200               0             -200               0
1.65132               -0.3511206       -23.81946        -45.95333       -110.6856             -200               0             -200               0
1.65789               -0.3618163       -24.05553        -45.69794       -114.6842             -200               0             -200               0
1.66447               -0.3729066        -24.2945        -45.45116       -118.6927             -200               0             -200               0
1.67105               -0.3843922       -24.53637        -45.21277       -122.7058             -200               0             -200               0
1.67763               -0.3962746       -24.78117        -44.98249       -126.7187             -200               0             -200               0
1.68421               -0.4085545       -25.02893        -44.75998       -130.7267             -200               0             -200               0
1.69079               -0.4212297       -25.27968        -44.54486       -134.7256             -200               0             -200               0
1.69737               -0.4343017        -25.5335        -44.33671       -138.7111             -200               0             -200               0
1.70395               -0.4477691       -25.79047        -44.13508       -142.6795             -200               0             -200               0
1.71053               -0.4616324       -26.05067        -43.93944       -146.6271             -200               0             -200               0
1.71711               -0.4758944       -26.31423        -43.74926       -150.5507             -200               0             -200               0
1.72368               -0.4905565       -26.58127        -43.56393       -154.4473             -200               0             -200               0
1.73026               -0.5056247       -26.85196        -43.38283       -158.3143             -200               0             -200               0
1.73684                -0.521105       -27.12644        -43.20528       -162.1495             -200               0             -200               0
1.74342               -0.5370063        -27.4049        -43.03057       -165.9509             -200               0             -200               0
1.75                   -0.553343       -27.68754        -42.85797       -169.7172             -200               0             -200               0
1.75658               -0.5701299       -27.97454         -42.6867       -173.4473             -200               0             -200               0
1.76316               -0.5873854       -28.26611        -42.51597       -177.1411             -200               0             -200               0
1.76974               -0.6051332       -28.56248        -42.34498        179.2016             -200               0             -200               0
1.77632               -0.6233982       -28.86386         -42.1729        175.5798             -200               0             -200               0
1.78289               -0.6422108       -29.17045        -41.99895        171.9923             -200               0             -200               0
1.78947               -0.6616047       -29.48248        -41.82232        168.4372             -200               0             -200               0
1.79605               -0.6816165       -29.80016        -41.64225        164.9117             -200               0             -200               0
1.80263               -0.7022879       -30.12368        -41.45802        161.4127             -200               0             -200               0
1.80921               -0.7236622       -30.45325        -41.26897        157.9363             -200               0             -200               0
1.81579               -0.7457864       -30.78903         -41.0745        154.4782             -200               0             -200               0
1.82237               -0.7687114       -31.13121        -40.87411        151.0335             -200               0             -200               0
1.82895               -0.7924892       -31.47994        -40.66738        147.5969             -200               0             -200               0
1.83553                -0.817175       -31.83534          -40.454        144.1629             -200               0             -200               0
1.84211               -0.8428264       -32.19756        -40.23377        140.7255             -200               0             -200               0
1.84868               -0.8695024       -32.56672         -40.0066         137.279             -200               0             -200               0
1.85526               -0.8972622       -32.94288        -39.77252        133.8174             -200               0             -200               0
1.86184               -0.9261688       -33.32615        -39.53167        130.3349             -200               0             -200               0
1.86842               -0.9562842        -33.7166        -39.28429         126.826             -200               0             -200               0
1.875                 -0.9876722       -34.11428        -39.03073        123.2855             -200               0             -200               0
1.88158                -1.020397       -34.51924        -38.77141        119.7086             -200               0             -200               0
1.88816                -1.054524       -34.93152        -38.50682        116.0908             -200               0             -200               0
1.89474                -1.090117       -35.35115        -38.23755        112.4286             -200               0             -200               0
1.90132                -1.127245       -35.77818        -37.96418        108.7185             -200               0             -200               0
1.90789                -1.165973       -36.21264        -37.68736        104.9579             -200               0             -200               0
1.91447                -1.206371       -36.65455        -37.40775        101.1446             -200               0             -200               0
1.92105                -1.248509       -37.10395        -37.12601          97.277             -200               0             -200               0
1.92763                -1.292457       -37.56088        -36.84281        93.35405             -200               0             -200               0
1.93421                -1.338293       -38.02539        -36.55879        89.37509             -200               0             -200               0
1.94079                 -1.38609       -38.49754        -36.27458        85.33994             -200               0             -200               0
1.94737                -1.435931       -38.97738        -35.99079        81.24878             -200               0             -200               0
1.95395                -1.487899       -39.46499        -35.70798        77.10216             -200               0             -200               0
1.96053                -1.542084       -39.96045         -35.4267        72.90089             -200               0             -200               0
1.96711                -1.598582       -40.46384        -35.14745        68.64605             -200               0             -200               0
1.97368                -1.657493       -40.97526        -34.87068        64.33891             -200               0             -200               0
1.98026                -1.718927        -41.4948        -34.59683        59.98093             -200               0             -200               0
1.98684                -1.782998       -42.02257        -34.32629        55.57366             -200               0             -200               0
1.99342                -1.849833       -42.55866        -34.05941         51.1188             -200               0             -200               0
2                      -1.919566       -43.10316        -33.79651        46.61807             -200               0             -200               0
2.00658                -1.992342       -43.65614        -33.53788        42.07328             -200               0             -200               0
2.01316                -2.068316       -44.21766        -33.28379        37.48624             -200               0             -200               0
2.01974                -2.147657       -44.78778        -33.03445        32.85877             -200               0             -200               0
2.02632                -2.230543       -45.36649        -32.79007        28.19271             -200               0             -200               0
2.03289                -2.317166       -45.95377        -32.55084        23.48985             -200               0             -200               0
2.03947                -2.407737       -46.54954        -32.31691        18.75198             -200               0             -200               0
2.04605                -2.502473       -47.15369        -32.08841        13.98083             -200               0             -200               0
2.05263                -2.601607       -47.76603        -31.86546        9.178118             -200               0             -200               0
2.05921                -2.705394       -48.38632        -31.64818        4.345492             -200               0             -200               0
2.06579                -2.814095        -49.0142        -31.43664      -0.5154311             -200               0             -200               0
2.07237                -2.927994       -49.64928        -31.23092       -5.403088             -200               0             -200               0
2.07895                -3.047385       -50.29103        -31.03108       -10.31597             -200               0             -200               0
2.08553                -3.172587       -50.93882        -30.83717        -15.2526             -200               0             -200               0
2.09211                -3.303928        -51.5919        -30.64925       -20.21158             -200               0             -200               0
2.09868                -3.441757       -52.24938        -30.46733       -25.19155             -200               0             -200               0
2.10526                -3.586442       -52.91025        -30.29146       -30.19118             -200               0             -200               0
2.11184                -3.738367       -53.57331        -30.12165       -35.20921             -200               0             -200               0
2.11842                -3.897938       -54.23719        -29.95791       -40.24441             -200               0             -200               0
2.125                   -4.06558       -54.90033        -29.80027        -45.2956             -200               0             -200               0
2.13158                 -4.24174       -55.56097        -29.64872       -50.36165             -200               0             -200               0
2.13816                -4.426884       -56.21707        -29.50326       -55.44144             -200               0             -200               0
2.14474                -4.621507       -56.86638        -29.36391       -60.53393             -200               0             -200               0
2.15132                -4.826122       -57.50633        -29.23065       -65.63806             -200               0             -200               0
2.15789                -5.041272       -58.13404        -29.10348       -70.75286             -200               0             -200               0
2.16447                 -5.26753       -58.74623         -28.9824       -75.87735             -200               0             -200               0
2.17105                -5.505492       -59.33925         -28.8674       -81.01059             -200               0             -200               0
2.17763                -5.755793       -59.90895        -28.75846       -86.15166             -200               0             -200               0
2.18421                -6.019094       -60.45065        -28.65558       -91.29968             -200               0             -200               0
2.19079                -6.296095       -60.95904        -28.55875       -96.45378             -200               0             -200               0
2.19737                -6.587532        -61.4281        -28.46795       -101.6131             -200               0             -200               0
2.20395                -6.894174       -61.85095        -28.38317       -106.7768             -200               0             -200               0
2.21053                -7.216829       -62.21975        -28.30441       -111.9441             -200               0             -200               0
2.21711                -7.556337       -62.52548        -28.23165       -117.1142             -200               0             -200               0
2.22368                -7.913568       -62.75774        -28.16487       -122.2863             -200               0             -200               0
2.23026                -8.289409       -62.90452        -28.10407       -127.4596             -200               0             -200               0
2.23684                -8.684752       -62.95183        -28.04922       -132.6333             -200               0             -200               0
2.24342                -9.100466       -62.88335        -28.00033       -137.8067             -200               0             -200               0
2.25                    -9.53736       -62.67994        -27.95738        -142.979             -200               0             -200               0
2.25658                -9.996125       -62.31914        -27.92035       -148.1494             -200               0             -200               0
2.26316                -10.47724       -61.77443        -27.88923       -153.3173             -200               0             -200               0
2.26974                -10.98085       -61.01461        -27.86401       -158.4817             -200               0             -200               0
2.27632                -11.50655       -60.00291        -27.84469       -163.6421             -200               0             -200               0
2.28289                -12.05313       -58.69634        -27.83124       -168.7976             -200               0             -200               0
2.28947                -12.61817       -57.04517        -27.82366       -173.9474             -200               0             -200               0