! TOUCHSTONE file generated by CST MICROWAVE STUDIO
! Date and time: Tue Mar 18 20:31:35 2025
! Project name: hairline.cst
! Parameters = {B=12.5; D=160; F=15; Feed=2.85625; Fracture=2; L=100; M=30; R=0.384908; S=1.5; Theta=0; length=57.125; wave=114.25}
! Header version: 2024
! Port assignment regex: !\s*Touchstone port\s*([0-9]+)\s*=\s*(CST MWS port|CST DES external port|CST DES block port)\s*(.+)\s* \(\"(.*)\"\)(\s*mode\s*([0-9]+))?.*
! Touchstone port assignment:
! Touchstone port 1 = CST MWS port 1 ("")
! Touchstone port 2 = CST MWS port 2 ("")
# GHz S DB R 50
1                    -0.02143466       -9.976661        -66.34317        174.7215             -200               0             -200               0
1.00658              -0.02207435       -10.06376         -66.3781        169.0185             -200               0             -200               0
1.01316              -0.02269951       -10.15146        -66.44911        163.4232             -200               0             -200               0
1.01974              -0.02331109       -10.23981        -66.55769        157.9458             -200               0             -200               0
1.02632               -0.0239117       -10.32886        -66.70559        152.5998             -200               0             -200               0
1.03289              -0.02450491       -10.41865        -66.89493        147.4022             -200               0             -200               0
1.03947              -0.02509594       -10.50921        -67.12817        142.3753             -200               0             -200               0
1.04605              -0.02568868       -10.60059        -67.40814        137.5473             -200               0             -200               0
1.05263              -0.02628999        -10.6928        -67.73802        132.9551             -200               0             -200               0
1.05921              -0.02690407       -10.78588        -68.12131        128.6466             -200               0             -200               0
1.06579              -0.02754023       -10.87985        -68.56161         124.685             -200               0             -200               0
1.07237              -0.02820239        -10.9747        -69.06229         121.154             -200               0             -200               0
1.07895              -0.02889924       -11.07045        -69.62568        118.1651             -200               0             -200               0
1.08553              -0.02963602        -11.1671        -70.25153        115.8673             -200               0             -200               0
1.09211              -0.03041926       -11.26464        -70.93408        114.4569             -200               0             -200               0
1.09868              -0.03125512       -11.36306        -71.65676        114.1832             -200               0             -200               0
1.10526              -0.03214887       -11.46233        -72.38344         115.336             -200               0             -200               0
1.11184              -0.03310482       -11.56244          -73.047         118.181             -200               0             -200               0
1.11842              -0.03412656       -11.66335        -73.54237        122.8015             -200               0             -200               0
1.125                -0.03521601       -11.76505        -73.74314        128.8594             -200               0             -200               0
1.13158              -0.03637527       -11.86749          -73.557        135.4777             -200               0             -200               0
1.13816              -0.03760536       -11.97065        -72.98659        141.5245             -200               0             -200               0
1.14474              -0.03890526       -12.07449        -72.12745         146.147             -200               0             -200               0
1.15132              -0.04027489         -12.179        -71.10573         149.034             -200               0             -200               0
1.15789              -0.04170948       -12.28414        -70.02446         150.284             -200               0             -200               0
1.16447               -0.0432077       -12.38988        -68.94874        150.1674             -200               0             -200               0
1.17105               -0.0447649       -12.49623        -67.91319        148.9732             -200               0             -200               0
1.17763              -0.04637684       -12.60316        -66.93346        146.9492             -200               0             -200               0
1.18421              -0.04803699       -12.71066        -66.01466        144.2899             -200               0             -200               0
1.19079              -0.04974001       -12.81875        -65.15663        141.1432             -200               0             -200               0
1.19737              -0.05148133       -12.92744        -64.35668        137.6205             -200               0             -200               0
1.20395              -0.05325419       -13.03673        -63.61115        133.8056             -200               0             -200               0
1.21053              -0.05505342       -13.14666        -62.91612        129.7624             -200               0             -200               0
1.21711               -0.0568737       -13.25726         -62.2678        125.5403             -200               0             -200               0
1.22368              -0.05871079       -13.36858        -61.66268        121.1775             -200               0             -200               0
1.23026                 -0.06056       -13.48065        -61.09758        116.7045             -200               0             -200               0
1.23684              -0.06241824       -13.59352        -60.56966        112.1457             -200               0             -200               0
1.24342               -0.0642848       -13.70727        -60.07639        107.5211             -200               0             -200               0
1.25                 -0.06615741       -13.82193        -59.61554        102.8471             -200               0             -200               0
1.25658              -0.06803667       -13.93758        -59.18513        98.13776             -200               0             -200               0
1.26316              -0.06992369       -14.05429         -58.7834        93.40486             -200               0             -200               0
1.26974              -0.07182163        -14.1721        -58.40879        88.65885             -200               0             -200               0
1.27632              -0.07373364       -14.29109         -58.0599        83.90893             -200               0             -200               0
1.28289              -0.07566451       -14.41131        -57.73549        79.16342             -200               0             -200               0
1.28947              -0.07762177       -14.53282        -57.43442        74.42995             -200               0             -200               0
1.29605              -0.07961052       -14.65566        -57.15566        69.71568             -200               0             -200               0
1.30263              -0.08163971       -14.77989        -56.89827        65.02741             -200               0             -200               0
1.30921              -0.08371701       -14.90553        -56.66136        60.37171             -200               0             -200               0
1.31579              -0.08585124       -15.03262        -56.44411        55.75504             -200               0             -200               0
1.32237              -0.08805127       -15.16119        -56.24573        51.18377             -200               0             -200               0
1.32895              -0.09032654       -15.29123        -56.06543        46.66435             -200               0             -200               0
1.33553              -0.09268595       -15.42277        -55.90244        42.20328             -200               0             -200               0
1.34211              -0.09513747        -15.5558        -55.75598        37.80718             -200               0             -200               0
1.34868              -0.09768941       -15.69031        -55.62524        33.48282             -200               0             -200               0
1.35526               -0.1003499       -15.82629        -55.50934        29.23715             -200               0             -200               0
1.36184               -0.1031238       -15.96373        -55.40735        25.07727             -200               0             -200               0
1.36842               -0.1060172       -16.10259        -55.31825        21.01045             -200               0             -200               0
1.375                 -0.1090331       -16.24285        -55.24091          17.044             -200               0             -200               0
1.38158               -0.1121755       -16.38449        -55.17404        13.18526             -200               0             -200               0
1.38816               -0.1154461       -16.52747        -55.11623        9.441456             -200               0             -200               0
1.39474               -0.1188447       -16.67178        -55.06585        5.819503             -200               0             -200               0
1.40132               -0.1223705       -16.81739         -55.0211        2.325811             -200               0             -200               0
1.40789                -0.126021       -16.96428        -54.97995       -1.034012             -200               0             -200               0
1.41447               -0.1297936       -17.11245        -54.94013         -4.2555             -200               0             -200               0
1.42105               -0.1336846       -17.26188        -54.89916       -7.335729             -200               0             -200               0
1.42763               -0.1376879       -17.41258        -54.85437       -10.27376             -200               0             -200               0
1.43421               -0.1417993       -17.56457        -54.80291       -13.07111             -200               0             -200               0
1.44079               -0.1460111       -17.71786        -54.74181       -15.73217             -200               0             -200               0
1.44737               -0.1503201        -17.8725        -54.66812       -18.26463             -200               0             -200               0
1.45395               -0.1547195       -18.02851        -54.57894       -20.67968             -200               0             -200               0
1.46053                -0.159203       -18.18597        -54.47162       -22.99208             -200               0             -200               0
1.46711               -0.1637678       -18.34494        -54.34382          -25.22             -200               0             -200               0
1.47368               -0.1684084       -18.50548        -54.19371       -27.38452             -200               0             -200               0
1.48026               -0.1731239        -18.6677        -54.02005        -29.5089             -200               0             -200               0
1.48684                -0.177912       -18.83167        -53.82226       -31.61769             -200               0             -200               0
1.49342               -0.1827743        -18.9975        -53.60046       -33.73557             -200               0             -200               0
1.5                   -0.1877116       -19.16529        -53.35547       -35.88631             -200               0             -200               0
1.50658               -0.1927283       -19.33514        -53.08871       -38.09175             -200               0             -200               0
1.51316               -0.1978296       -19.50718        -52.80213       -40.37098             -200               0             -200               0
1.51974               -0.2030243        -19.6815        -52.49806        -42.7398             -200               0             -200               0
1.52632               -0.2083207       -19.85822         -52.1791       -45.21047             -200               0             -200               0
1.53289               -0.2137303       -20.03744        -51.84794       -47.79162             -200               0             -200               0
1.53947               -0.2192657       -20.21925         -51.5073       -50.48854             -200               0             -200               0
1.54605               -0.2249428       -20.40375        -51.15981       -53.30344             -200               0             -200               0
1.55263               -0.2307766       -20.59102        -50.80794       -56.23591             -200               0             -200               0
1.55921                -0.236784       -20.78113        -50.45393       -59.28341             -200               0             -200               0
1.56579               -0.2429822       -20.97416        -50.09981        -62.4417             -200               0             -200               0
1.57237               -0.2493918       -21.17014        -49.74736       -65.70524             -200               0             -200               0
1.57895               -0.2560298       -21.36912        -49.39812       -69.06759             -200               0             -200               0
1.58553               -0.2629149       -21.57113         -49.0534       -72.52173             -200               0             -200               0
1.59211               -0.2700671       -21.77619        -48.71429       -76.06027             -200               0             -200               0
1.59868               -0.2775031        -21.9843        -48.38168       -79.67566             -200               0             -200               0
1.60526               -0.2852412       -22.19547        -48.05631       -83.36036             -200               0             -200               0
1.61184               -0.2932966       -22.40968        -47.73874       -87.10691             -200               0             -200               0
1.61842                -0.301684       -22.62692        -47.42939       -90.90803             -200               0             -200               0
1.625                  -0.310418       -22.84716        -47.12858       -94.75668             -200               0             -200               0
1.63158               -0.3195094       -23.07038        -46.83652       -98.64607             -200               0             -200               0
1.63816               -0.3289682       -23.29655        -46.55331       -102.5697             -200               0             -200               0
1.64474               -0.3388044       -23.52565          -46.279       -106.5213             -200               0             -200               0
1.65132                -0.349022       -23.75767        -46.01352       -110.4949             -200               0             -200               0
1.65789               -0.3596287       -23.99257         -45.7568       -114.4849             -200               0             -200               0
1.66447               -0.3706256       -24.23035        -45.50864       -118.4858             -200               0             -200               0
1.67105               -0.3820176       -24.47103        -45.26884       -122.4926             -200               0             -200               0
1.67763                -0.393803        -24.7146        -45.03713       -126.5003             -200               0             -200               0
1.68421               -0.4059819       -24.96111        -44.81319       -130.5042             -200               0             -200               0
1.69079               -0.4185577       -25.21059        -44.59666       -134.5001             -200               0             -200               0
1.69737                -0.431525        -25.4631        -44.38712       -138.4837             -200               0             -200               0
1.70395               -0.4448869       -25.71871        -44.18414       -142.4513             -200               0             -200               0
1.71053                -0.458643       -25.97754         -43.9872       -146.3992             -200               0             -200               0
1.71711               -0.4727938       -26.23967        -43.79579        -150.324             -200               0             -200               0
1.72368               -0.4873415       -26.50525        -43.60931       -154.2229             -200               0             -200               0
1.73026               -0.5022917       -26.77441        -43.42715       -158.0931             -200               0             -200               0
1.73684               -0.5176493       -27.04733        -43.24866       -161.9323             -200               0             -200               0
1.74342               -0.5334243       -27.32417        -43.07313       -165.7385             -200               0             -200               0
1.75                  -0.5496296       -27.60512        -42.89985       -169.5104             -200               0             -200               0
1.75658               -0.5662781       -27.89038        -42.72806       -173.2469             -200               0             -200               0
1.76316               -0.5833891       -28.18016        -42.55697       -176.9475             -200               0             -200               0
1.76974               -0.6009841       -28.47466         -42.3858        179.3879             -200               0             -200               0
1.77632               -0.6190888       -28.77411        -42.21374        175.7586             -200               0             -200               0
1.78289               -0.6377316       -29.07872        -42.03999        172.1634             -200               0             -200               0
1.78947               -0.6569461       -29.38869        -41.86377        168.6004             -200               0             -200               0
1.79605               -0.6767679       -29.70425        -41.68431        165.0674             -200               0             -200               0
1.80263               -0.6972378       -30.02559         -41.5009        161.5611             -200               0             -200               0
1.80921               -0.7183986        -30.3529        -41.31287        158.0779             -200               0             -200               0
1.81579               -0.7402965       -30.68638        -41.11961        154.6137             -200               0             -200               0
1.82237                -0.762981       -31.02618        -40.92061        151.1637             -200               0             -200               0
1.82895               -0.7865051       -31.37247        -40.71543        147.7228             -200               0             -200               0
1.83553               -0.8109219       -31.72538        -40.50375        144.2856             -200               0             -200               0
1.84211               -0.8362882       -32.08506        -40.28534        140.8463             -200               0             -200               0
1.84868               -0.8626636       -32.45159        -40.06008        137.3991             -200               0             -200               0
1.85526               -0.8901062       -32.82509        -39.82799        133.9382             -200               0             -200               0
1.86184               -0.9186786       -33.20565        -39.58917        130.4579             -200               0             -200               0
1.86842               -0.9484417       -33.59332        -39.34384        126.9525             -200               0             -200               0
1.875                 -0.9794596       -33.98816        -39.09231         123.417             -200               0             -200               0
1.88158                -1.011795       -34.39023        -38.83499        119.8465             -200               0             -200               0
1.88816                -1.045513       -34.79957        -38.57235        116.2365             -200               0             -200               0
1.89474                -1.080678       -35.21621        -38.30493        112.5831             -200               0             -200               0
1.90132                -1.117357       -35.64018        -38.03333        108.8831             -200               0             -200               0
1.90789                -1.155614       -36.07151        -37.75817        105.1335             -200               0             -200               0
1.91447                 -1.19552       -36.51023        -37.48009        101.3322             -200               0             -200               0
1.92105                -1.237141       -36.95638        -37.19974        97.47745             -200               0             -200               0
1.92763                 -1.28055       -37.40999         -36.9178        93.56795             -200               0             -200               0
1.93421                -1.325818       -37.87111        -36.63489        89.60302             -200               0             -200               0
1.94079                -1.373022       -38.33977        -36.35165        85.58234             -200               0             -200               0
1.94737                 -1.42224       -38.81606        -36.06868        81.50601             -200               0             -200               0
1.95395                -1.473555       -39.30002        -35.78655        77.37446             -200               0             -200               0
1.96053                -1.527055       -39.79175        -35.50581        73.18844             -200               0             -200               0
1.96711                -1.582832       -40.29131        -35.22695        68.94893             -200               0             -200               0
1.97368                -1.640985       -40.79882        -34.95046        64.65714             -200               0             -200               0
1.98026                 -1.70162       -41.31434        -34.67676        60.31447             -200               0             -200               0
1.98684                 -1.76485         -41.838        -34.40626        55.92242             -200               0             -200               0
1.99342                -1.830797       -42.36987         -34.1393        51.48263             -200               0             -200               0
2                      -1.899591       -42.91005        -33.87622         46.9968             -200               0             -200               0
2.00658                -1.971376       -43.45862        -33.61732        42.46669             -200               0             -200               0
2.01316                  -2.0463       -44.01565        -33.36285         37.8941             -200               0             -200               0
2.01974                -2.124529       -44.58118        -33.11306        33.28083             -200               0             -200               0
2.02632                -2.206238       -45.15521        -32.86815         28.6287             -200               0             -200               0
2.03289                -2.291614       -45.73775        -32.62831        23.93948             -200               0             -200               0
2.03947                -2.380859       -46.32872         -32.3937        19.21495             -200               0             -200               0
2.04605                -2.474189       -46.92802        -32.16446        14.45685             -200               0             -200               0
2.05263                -2.571832       -47.53546        -31.94071        9.666873             -200               0             -200               0
2.05921                -2.674033       -48.15084        -31.72258        4.846685             -200               0             -200               0
2.06579                -2.781052       -48.77381        -31.51013    -0.002102621             -200               0             -200               0
2.07237                -2.893164         -49.404        -31.30346       -4.877927             -200               0             -200               0
2.07895                -3.010658       -50.04091        -31.10262       -9.779275             -200               0             -200               0
2.08553                -3.133844       -50.68394        -30.90768       -14.70468             -200               0             -200               0
2.09211                -3.263045       -51.33236        -30.71868       -19.65271             -200               0             -200               0
2.09868                -3.398602       -51.98533        -30.53566       -24.62202             -200               0             -200               0
2.10526                -3.540873       -52.64186        -30.35865       -29.61127             -200               0             -200               0
2.11184                -3.690236        -53.3008        -30.18767        -34.6192             -200               0             -200               0
2.11842                -3.847088       -53.96083        -30.02273       -39.64456             -200               0             -200               0
2.125                  -4.011842       -54.62044        -29.86386       -44.68619             -200               0             -200               0
2.13158                -4.184936       -55.27791        -29.71105       -49.74293             -200               0             -200               0
2.13816                -4.366824       -55.93132        -29.56432       -54.81367             -200               0             -200               0
2.14474                -4.557988       -56.57843        -29.42367       -59.89734             -200               0             -200               0
2.15132                -4.758931       -57.21679        -29.28909       -64.99292             -200               0             -200               0
2.15789                -4.970178        -57.8436        -29.16058       -70.09939             -200               0             -200               0
2.16447                -5.192286        -58.4557        -29.03813       -75.21578             -200               0             -200               0
2.17105                -5.425836       -59.04957        -28.92174       -80.34115             -200               0             -200               0
2.17763                -5.671441        -59.6212        -28.81141       -85.47458             -200               0             -200               0
2.18421                -5.929743       -60.16607        -28.70711       -90.61518             -200               0             -200               0
2.19079                -6.201417       -60.67909        -28.60884       -95.76207             -200               0             -200               0
2.19737                -6.487174       -61.15446        -28.51658       -100.9144             -200               0             -200               0
2.20395                -6.787756        -61.5856        -28.43034       -106.0713             -200               0             -200               0
2.21053                -7.103942         -61.965        -28.35008       -111.2321             -200               0             -200               0
2.21711                -7.436539       -62.28407        -28.27581       -116.3958             -200               0             -200               0
2.22368                -7.786384       -62.53288        -28.20752       -121.5617             -200               0             -200               0
2.23026                -8.154331       -62.70005        -28.14517        -126.729             -200               0             -200               0
2.23684                -8.541238       -62.77229        -28.08878        -131.897             -200               0             -200               0
2.24342                -8.947948       -62.73422        -28.03832       -137.0648             -200               0             -200               0
2.25                   -9.375246       -62.56783        -27.99377       -142.2317             -200               0             -200               0
2.25658                -9.823816       -62.25197        -27.95514       -147.3971             -200               0             -200               0
2.26316                -10.29416       -61.76185        -27.92241         -152.56             -200               0             -200               0
2.26974                -10.78647       -61.06831        -27.89556       -157.7197             -200               0             -200               0
2.27632                -11.30049       -60.13707        -27.87458       -162.8755             -200               0             -200               0
2.28289                -11.83523       -58.92808        -27.85946       -168.0267             -200               0             -200               0
2.28947                -12.38865       -57.39501        -27.85019       -173.1725             -200               0             -200               0