! TOUCHSTONE file generated by CST MICROWAVE STUDIO
! Date and time: Tue Mar 18 20:31:37 2025
! Project name: hairline.cst
! Parameters = {B=12.5; D=160; F=25; Feed=2.85625; Fracture=0.5; L=100; M=30; R=0.384908; S=1.5; Theta=0; length=57.125; wave=114.25}
! Header version: 2024
! Port assignment regex: !\s*Touchstone port\s*([0-9]+)\s*=\s*(CST MWS port|CST DES external port|CST DES block port)\s*(.+)\s* \(\"(.*)\"\)(\s*mode\s*([0-9]+))?.*
! Touchstone port assignment:
! Touchstone port 1 = CST MWS port 1 ("")
! Touchstone port 2 = CST MWS port 2 ("")
# GHz S DB R 50
1                    -0.02151521       -9.724984        -65.85769        160.2548             -200               0             -200               0
1.0066               -0.02203854       -9.810354        -65.92172        154.3161             -200               0             -200               0
1.0132               -0.02252439       -9.896482        -66.02167        148.4911             -200               0             -200               0
1.0198               -0.02297822        -9.98344        -66.15914        142.7902             -200               0             -200               0
1.0264               -0.02340706        -10.0713        -66.33607        137.2274             -200               0             -200               0
1.033                -0.02381884       -10.16011        -66.55471        131.8206             -200               0             -200               0
1.0396               -0.02422251       -10.24993        -66.81767        126.5927             -200               0             -200               0
1.0462               -0.02462942       -10.34079        -67.12793        121.5736             -200               0             -200               0
1.05281              -0.02504966       -10.43273        -67.48884        116.8021             -200               0             -200               0
1.05941              -0.02549516       -10.52576        -67.90401         112.329             -200               0             -200               0
1.06601               -0.0259781        -10.6199        -68.37713        108.2215             -200               0             -200               0
1.07261              -0.02650902       -10.71513        -68.91153        104.5688             -200               0             -200               0
1.07921              -0.02710026       -10.81144        -69.50926        101.4905             -200               0             -200               0
1.08581              -0.02776047       -10.90881         -70.1693        99.14572             -200               0             -200               0
1.09241              -0.02849996       -11.00718        -70.88416        97.74403             -200               0             -200               0
1.09901              -0.02932689       -11.10653        -71.63386        97.54856             -200               0             -200               0
1.10561              -0.03024748        -11.2068        -72.37623        98.85553             -200               0             -200               0
1.11221              -0.03126665       -11.30792        -73.03519        101.9119             -200               0             -200               0
1.11881              -0.03238842       -11.40984        -73.49683          106.73             -200               0             -200               0
1.12541              -0.03361327        -11.5125        -73.63472        112.8445             -200               0             -200               0
1.13201              -0.03494215       -11.61582        -73.37311        119.2664             -200               0             -200               0
1.13861              -0.03637194       -11.71975        -72.73976        124.8683             -200               0             -200               0
1.14521              -0.03789713       -11.82424         -71.8453        128.9091             -200               0             -200               0
1.15182              -0.03951594       -11.92922        -70.81542        131.1944             -200               0             -200               0
1.15842              -0.04121724       -12.03467        -69.74526        131.8867             -200               0             -200               0
1.16502              -0.04299666       -12.14054        -68.69204        131.2748             -200               0             -200               0
1.17162              -0.04484136       -12.24682        -67.68499        129.6439             -200               0             -200               0
1.17822              -0.04674357       -12.35349        -66.73657        127.2311             -200               0             -200               0
1.18482              -0.04869345       -12.46055        -65.85021        124.2202             -200               0             -200               0
1.19142              -0.05067739       -12.56803        -65.02485          120.75             -200               0             -200               0
1.19802               -0.0526879       -12.67594        -64.25745        116.9247             -200               0             -200               0
1.20462               -0.0547147       -12.78433        -63.54418        112.8231             -200               0             -200               0
1.21122              -0.05674873       -12.89325        -62.88114        108.5052             -200               0             -200               0
1.21782              -0.05878148       -13.00277        -62.26458        104.0172             -200               0             -200               0
1.22442              -0.06080724       -13.11295        -61.69108        99.39528             -200               0             -200               0
1.23102              -0.06282104       -13.22388        -61.15757        94.66816             -200               0             -200               0
1.23762              -0.06481958       -13.33565        -60.66132        89.85896             -200               0             -200               0
1.24422              -0.06680155       -13.44834        -60.19992        84.98659             -200               0             -200               0
1.25083              -0.06876922       -13.56204        -59.77124        80.06676             -200               0             -200               0
1.25743              -0.07072305       -13.67686        -59.37342        75.11276             -200               0             -200               0
1.26403              -0.07266948       -13.79289        -59.00482        70.13601             -200               0             -200               0
1.27063              -0.07461554       -13.91019        -58.66399        65.14651             -200               0             -200               0
1.27723               -0.0765682       -14.02888        -58.34967        60.15318             -200               0             -200               0
1.28383              -0.07853934       -14.14899        -58.06072        55.16412             -200               0             -200               0
1.29043              -0.08053862       -14.27062        -57.79615        50.18687             -200               0             -200               0
1.29703              -0.08258122        -14.3938        -57.55506        45.22854             -200               0             -200               0
1.30363              -0.08467667       -14.51857        -57.33667        40.29598             -200               0             -200               0
1.31023               -0.0868426       -14.64496        -57.14024        35.39593             -200               0             -200               0
1.31683               -0.0890912       -14.77298        -56.96512        30.53508             -200               0             -200               0
1.32343              -0.09143571       -14.90263        -56.81069        25.72026             -200               0             -200               0
1.33003              -0.09388948       -15.03391        -56.67638        20.95842             -200               0             -200               0
1.33663              -0.09646483       -15.16677        -56.56161        16.25681             -200               0             -200               0
1.34323              -0.09917434        -15.3012        -56.46582        11.62303             -200               0             -200               0
1.34984               -0.1020247       -15.43713        -56.38842        7.065048             -200               0             -200               0
1.35644               -0.1050253       -15.57453        -56.32879        2.591359             -200               0             -200               0
1.36304               -0.1081826       -15.71333        -56.28622       -1.789034             -200               0             -200               0
1.36964               -0.1114997       -15.85348        -56.25995       -6.066555             -200               0             -200               0
1.37624               -0.1149796       -15.99491        -56.24904       -10.23104             -200               0             -200               0
1.38284               -0.1186206       -16.13756        -56.25244       -14.27177             -200               0             -200               0
1.38944               -0.1224227       -16.28137        -56.26885       -18.17751             -200               0             -200               0
1.39604               -0.1263787        -16.4263        -56.29674       -21.93664             -200               0             -200               0
1.40264               -0.1304841        -16.5723        -56.33428        -25.5374             -200               0             -200               0
1.40924               -0.1347321       -16.71934        -56.37925       -28.96812             -200               0             -200               0
1.41584               -0.1391134       -16.86741        -56.42906       -32.21777             -200               0             -200               0
1.42244               -0.1436177       -17.01649        -56.48064       -35.27651             -200               0             -200               0
1.42904               -0.1482345        -17.1666        -56.53043       -38.13648             -200               0             -200               0
1.43564               -0.1529532       -17.31777         -56.5744       -40.79278             -200               0             -200               0
1.44224               -0.1577631       -17.47003        -56.60809       -43.24454             -200               0             -200               0
1.44884               -0.1626537       -17.62344        -56.62668       -45.49608             -200               0             -200               0
1.45545               -0.1676169       -17.77808        -56.62521       -47.55797             -200               0             -200               0
1.46205               -0.1726422       -17.93402        -56.59875       -49.44786             -200               0             -200               0
1.46865                -0.177725       -18.09138        -56.54277       -51.19075             -200               0             -200               0
1.47525               -0.1828605       -18.25027        -56.45344       -52.81864             -200               0             -200               0
1.48185               -0.1880457        -18.4108        -56.32794       -54.36936             -200               0             -200               0
1.48845                -0.193281       -18.57309        -56.16474       -55.88458             -200               0             -200               0
1.49505               -0.1985691        -18.7373        -55.96371       -57.40737             -200               0             -200               0
1.50165               -0.2039148       -18.90355        -55.72617       -58.97941             -200               0             -200               0
1.50825               -0.2093261       -19.07197        -55.45471       -60.63852             -200               0             -200               0
1.51485               -0.2148127       -19.24269        -55.15294        -62.4167             -200               0             -200               0
1.52145               -0.2203882       -19.41585        -54.82518       -64.33892             -200               0             -200               0
1.52805               -0.2260681       -19.59155         -54.4761       -66.42274             -200               0             -200               0
1.53465               -0.2318684        -19.7699        -54.11047       -68.67861             -200               0             -200               0
1.54125               -0.2378088       -19.95099        -53.73285       -71.11068             -200               0             -200               0
1.54785               -0.2439105        -20.1349        -53.34748       -73.71784             -200               0             -200               0
1.55446               -0.2501943       -20.32169        -52.95814       -76.49488             -200               0             -200               0
1.56106               -0.2566808       -20.51141        -52.56812       -79.43362             -200               0             -200               0
1.56766               -0.2633937       -20.70408         -52.1802       -82.52381             -200               0             -200               0
1.57426               -0.2703543       -20.89972         -51.7967       -85.75399             -200               0             -200               0
1.58086               -0.2775838       -21.09832         -51.4195       -89.11203             -200               0             -200               0
1.58746               -0.2851018       -21.29985        -51.05009       -92.58566             -200               0             -200               0
1.59406               -0.2929267        -21.5043        -50.68964       -96.16274             -200               0             -200               0
1.60066                -0.301074       -21.71161        -50.33904        -99.8315             -200               0             -200               0
1.60726               -0.3095596       -21.92173        -49.99892       -103.5807             -200               0             -200               0
1.61386               -0.3183943        -22.1346        -49.66972       -107.3995             -200               0             -200               0
1.62046               -0.3275878       -22.35017        -49.35172        -111.278             -200               0             -200               0
1.62706               -0.3371452       -22.56836        -49.04506       -115.2066             -200               0             -200               0
1.63366               -0.3470716       -22.78913        -48.74975       -119.1765             -200               0             -200               0
1.64026               -0.3573678       -23.01241        -48.46571       -123.1791             -200               0             -200               0
1.64686               -0.3680315       -23.23817        -48.19277       -127.2069             -200               0             -200               0
1.65347               -0.3790606       -23.46638         -47.9307       -131.2522             -200               0             -200               0
1.66007               -0.3904474       -23.69703        -47.67919       -135.3084             -200               0             -200               0
1.66667               -0.4021855       -23.93013        -47.43787       -139.3689             -200               0             -200               0
1.67327               -0.4142659       -24.16569        -47.20634       -143.4275             -200               0             -200               0
1.67987               -0.4266804       -24.40378        -46.98411       -147.4787             -200               0             -200               0
1.68647                -0.439418       -24.64447        -46.77067        -151.517             -200               0             -200               0
1.69307               -0.4524706       -24.88785        -46.56545       -155.5374             -200               0             -200               0
1.69967               -0.4658306       -25.13406        -46.36784       -159.5353             -200               0             -200               0
1.70627               -0.4794899       -25.38324        -46.17715       -163.5064             -200               0             -200               0
1.71287               -0.4934459       -25.63557        -45.99269       -167.4467             -200               0             -200               0
1.71947               -0.5076952       -25.89123        -45.81367       -171.3529             -200               0             -200               0
1.72607               -0.5222396       -26.15044        -45.63929       -175.2217             -200               0             -200               0
1.73267               -0.5370847       -26.41345        -45.46868       -179.0508             -200               0             -200               0
1.73927               -0.5522382       -26.68048        -45.30093         177.162             -200               0             -200               0
1.74587               -0.5677155       -26.95182        -45.13512        173.4182             -200               0             -200               0
1.75248               -0.5835321        -27.2277        -44.97026        169.7184             -200               0             -200               0
1.75908               -0.5997121       -27.50842        -44.80535        166.0628             -200               0             -200               0
1.76568               -0.6162821       -27.79423        -44.63939        162.4509             -200               0             -200               0
1.77228               -0.6332743       -28.08541        -44.47137         158.881             -200               0             -200               0
1.77888               -0.6507243        -28.3822        -44.30029        155.3512             -200               0             -200               0
1.78548               -0.6686735       -28.68486         -44.1252        151.8582             -200               0             -200               0
1.79208                -0.687166       -28.99362        -43.94519        148.3982             -200               0             -200               0
1.79868               -0.7062508       -29.30868        -43.75943        144.9666             -200               0             -200               0
1.80528               -0.7259793       -29.63026        -43.56718         141.558             -200               0             -200               0
1.81188               -0.7464043       -29.95851        -43.36779        138.1664             -200               0             -200               0
1.81848               -0.7675839       -30.29361        -43.16076        134.7851             -200               0             -200               0
1.82508               -0.7895756       -30.63567        -42.94573        131.4074             -200               0             -200               0
1.83168               -0.8124373        -30.9848        -42.72245        128.0258             -200               0             -200               0
1.83828               -0.8362301       -31.34109        -42.49086        124.6332             -200               0             -200               0
1.84488               -0.8610108       -31.70462        -42.25102        121.2222             -200               0             -200               0
1.85149               -0.8868419       -32.07543        -42.00317        117.7859             -200               0             -200               0
1.85809               -0.9137802       -32.45356        -41.74764        114.3175             -200               0             -200               0
1.86469               -0.9418836       -32.83903         -41.4849        110.8109             -200               0             -200               0
1.87129                -0.971207       -33.23187        -41.21554        107.2606             -200               0             -200               0
1.87789                -1.001808        -33.6321        -40.94022        103.6614             -200               0             -200               0
1.88449                -1.033738       -34.03972        -40.65965        100.0094             -200               0             -200               0
1.89109                -1.067051       -34.45477        -40.37462        96.30083             -200               0             -200               0
1.89769                -1.101799       -34.87727        -40.08592         92.5331             -200               0             -200               0
1.90429                -1.138031       -35.30727        -39.79437        88.70412             -200               0             -200               0
1.91089                -1.175801       -35.74485        -39.50076        84.81252             -200               0             -200               0
1.91749                -1.215159       -36.19008         -39.2059        80.85753             -200               0             -200               0
1.92409                -1.256161       -36.64309        -38.91054        76.83896             -200               0             -200               0
1.93069                 -1.29886         -37.104        -38.61541        72.75709             -200               0             -200               0
1.93729                -1.343316       -37.57299         -38.3212        68.61267             -200               0             -200               0
1.94389                -1.389594       -38.05026        -38.02853        64.40676             -200               0             -200               0
1.9505                 -1.437761       -38.53605        -37.73802        60.14075             -200               0             -200               0
1.9571                 -1.487892        -39.0306        -37.45019        55.81629             -200               0             -200               0
1.9637                 -1.540071       -39.53423        -37.16554        51.43521             -200               0             -200               0
1.9703                  -1.59439       -40.04723        -36.88452        46.99945             -200               0             -200               0
1.9769                 -1.650951       -40.56996        -36.60752        42.51111             -200               0             -200               0
1.9835                 -1.709867       -41.10276        -36.33491        37.97233             -200               0             -200               0
1.9901                 -1.771265       -41.64601        -36.06701        33.38529             -200               0             -200               0
1.9967                 -1.835282       -42.20007        -35.80409         28.7522             -200               0             -200               0
2.0033                 -1.902073       -42.76533        -35.54639        24.07523             -200               0             -200               0
2.0099                 -1.971807       -43.34214        -35.29415        19.35657             -200               0             -200               0
2.0165                  -2.04467       -43.93086        -35.04752        14.59834             -200               0             -200               0
2.0231                 -2.120862       -44.53178        -34.80669        9.802635             -200               0             -200               0
2.0297                 -2.200604       -45.14521        -34.57178        4.971473             -200               0             -200               0
2.0363                 -2.284132       -45.77136        -34.34291       0.1068303             -200               0             -200               0
2.0429                 -2.371704       -46.41042        -34.12017       -4.789387             -200               0             -200               0
2.0495                 -2.463594        -47.0625        -33.90364       -9.715337             -200               0             -200               0
2.05611                -2.560095       -47.72762        -33.69339       -14.66925             -200               0             -200               0
2.06271                -2.661522       -48.40574        -33.48947       -19.64941             -200               0             -200               0
2.06931                -2.768207        -49.0967        -33.29193       -24.65419             -200               0             -200               0
2.07591                -2.880505       -49.80023        -33.10078       -29.68201             -200               0             -200               0
2.08251                -2.998786       -50.51596        -32.91606       -34.73135             -200               0             -200               0
2.08911                -3.123446       -51.24338        -32.73777       -39.80077             -200               0             -200               0
2.09571                -3.254902       -51.98183        -32.56593       -44.88886             -200               0             -200               0
2.10231                -3.393589       -52.73051        -32.40053       -49.99431             -200               0             -200               0
2.10891                -3.539966       -53.48847        -32.24158       -55.11581             -200               0             -200               0
2.11551                -3.694519       -54.25455        -32.08907       -60.25213             -200               0             -200               0
2.12211                -3.857756       -55.02743        -31.94298        -65.4021             -200               0             -200               0
2.12871                 -4.03021       -55.80556        -31.80331       -70.56456             -200               0             -200               0
2.13531                -4.212445       -56.58718        -31.67004       -75.73841             -200               0             -200               0
2.14191                -4.405056       -57.37027        -31.54315        -80.9226             -200               0             -200               0
2.14851                -4.608672       -58.15255        -31.42262       -86.11609             -200               0             -200               0
2.15512                -4.823957       -58.93144        -31.30843       -91.31789             -200               0             -200               0
2.16172                -5.051617       -59.70399        -31.20057       -96.52704             -200               0             -200               0
2.16832                -5.292403        -60.4669          -31.099       -101.7426             -200               0             -200               0
2.17492                 -5.54712       -61.21641        -31.00371       -106.9637             -200               0             -200               0
2.18152                -5.816623       -61.94826        -30.91468       -112.1894             -200               0             -200               0
2.18812                -6.101839       -62.65761        -30.83187       -117.4188             -200               0             -200               0
2.19472                 -6.40376       -63.33891        -30.75527       -122.6512             -200               0             -200               0
2.20132                -6.723464       -63.98582        -30.68486       -127.8856             -200               0             -200               0
2.20792                -7.062115         -64.591        -30.62061       -133.1213             -200               0             -200               0
2.21452                -7.420979       -65.14596        -30.56249       -138.3574             -200               0             -200               0
2.22112                -7.801435       -65.64076        -30.51049       -143.5932             -200               0             -200               0
2.22772                -8.204985       -66.06372        -30.46458       -148.8279             -200               0             -200               0
2.23432                 -8.63326       -66.40099        -30.42475       -154.0608             -200               0             -200               0
2.24092                -9.088034       -66.63599        -30.39095       -159.2909             -200               0             -200               0
2.24752                -9.571213       -66.74877        -30.36319       -164.5177             -200               0             -200               0
2.25413                -10.08483       -66.71506        -30.34143       -169.7402             -200               0             -200               0
2.26073                -10.63101       -66.50507        -30.32565       -174.9578             -200               0             -200               0
2.26733                -11.21189       -66.08196        -30.31582        179.8303             -200               0             -200               0
2.27393                -11.82946       -65.39985        -30.31193         174.625             -200               0             -200               0
2.28053                -12.48534       -64.40118        -30.31396        169.4269             -200               0             -200               0
2.28713                -13.18027       -63.01356        -30.32187        164.2368             -200               0             -200               0
2.29373                -13.91337        -61.1461        -30.33566        159.0556             -200               0             -200               0