! TOUCHSTONE file generated by CST MICROWAVE STUDIO
! Date and time: Tue Mar 18 20:31:39 2025
! Project name: hairline.cst
! Parameters = {B=12.5; D=160; F=25; Feed=2.85625; Fracture=0.5; L=100; M=50; R=0.384908; S=1.5; Theta=0; length=57.125; wave=114.25}
! Header version: 2024
! Port assignment regex: !\s*Touchstone port\s*([0-9]+)\s*=\s*(CST MWS port|CST DES external port|CST DES block port)\s*(.+)\s* \(\"(.*)\"\)(\s*mode\s*([0-9]+))?.*
! Touchstone port assignment:
! Touchstone port 1 = CST MWS port 1 ("")
! Touchstone port 2 = CST MWS port 2 ("")
# GHz S DB R 50
1                    -0.01931164       -9.749477        -70.71386        117.5181             -200               0             -200               0
1.00758              -0.02030308       -9.849513        -70.91633        112.4288             -200               0             -200               0
1.01515              -0.02130421       -9.950059        -71.14911        107.5101             -200               0             -200               0
1.02273              -0.02230852       -10.05115        -71.41346        102.7865             -200               0             -200               0
1.0303               -0.02331241       -10.15281        -71.71061        98.28864             -200               0             -200               0
1.03788              -0.02430948       -10.25511         -72.0415        94.05396             -200               0             -200               0
1.04545              -0.02529778       -10.35808        -72.40666        90.12884             -200               0             -200               0
1.05303              -0.02627413       -10.46178        -72.80574         86.5704             -200               0             -200               0
1.06061               -0.0272363       -10.56628        -73.23695        83.44841             -200               0             -200               0
1.06818               -0.0281839       -10.67163        -73.69612        80.84683             -200               0             -200               0
1.07576              -0.02911703       -10.77791        -74.17534        78.86355             -200               0             -200               0
1.08333              -0.03003779       -10.88517        -74.66105        77.60634             -200               0             -200               0
1.09091              -0.03094979       -10.99348        -75.13178        77.18094             -200               0             -200               0
1.09848              -0.03185563        -11.1029        -75.55609        77.66645             -200               0             -200               0
1.10606              -0.03276101        -11.2135        -75.89235        79.07475             -200               0             -200               0
1.11364              -0.03367218       -11.32532          -76.093        81.30068             -200               0             -200               0
1.12121              -0.03459565       -11.43842        -76.11487         84.0885             -200               0             -200               0
1.12879              -0.03553942       -11.55285         -75.9334        87.05215             -200               0             -200               0
1.13636              -0.03651179       -11.66865        -75.55255        89.76331             -200               0             -200               0
1.14394              -0.03752167       -11.78584        -75.00308        91.86475             -200               0             -200               0
1.15152              -0.03857713       -11.90446        -74.33057        93.14201             -200               0             -200               0
1.15909               -0.0396891       -12.02452        -73.58168        93.52607             -200               0             -200               0
1.16667              -0.04086611       -12.14604        -72.79539        93.05192             -200               0             -200               0
1.17424              -0.04211686       -12.26901        -72.00025         91.8095             -200               0             -200               0
1.18182              -0.04345033       -12.39344         -71.2153        89.90742             -200               0             -200               0
1.18939              -0.04487464       -12.51932        -70.45226        87.45217             -200               0             -200               0
1.19697              -0.04639602       -12.64664        -69.71779        84.53882             -200               0             -200               0
1.20455              -0.04802234       -12.77537        -69.01519        81.24826             -200               0             -200               0
1.21212              -0.04975862        -12.9055         -68.3457        77.64764             -200               0             -200               0
1.2197               -0.05160989         -13.037        -67.70926        73.79201             -200               0             -200               0
1.22727               -0.0535792       -13.16984        -67.10511        69.72638             -200               0             -200               0
1.23485              -0.05566958       -13.30401        -66.53205        65.48753             -200               0             -200               0
1.24242              -0.05788101       -13.43947        -65.98874        61.10564             -200               0             -200               0
1.25                 -0.06021633        -13.5762        -65.47376        56.60563             -200               0             -200               0
1.25758              -0.06267272       -13.71419        -64.98568        52.00823             -200               0             -200               0
1.26515              -0.06524918       -13.85342        -64.52316        47.33079             -200               0             -200               0
1.27273              -0.06794302       -13.99388        -64.08492          42.588             -200               0             -200               0
1.2803               -0.07075221       -14.13557        -63.66977         37.7924             -200               0             -200               0
1.28788               -0.0736729       -14.27849        -63.27662        32.95478             -200               0             -200               0
1.29545              -0.07670009       -14.42266        -62.90445        28.08457             -200               0             -200               0
1.30303              -0.07983062        -14.5681        -62.55233         23.1901             -200               0             -200               0
1.31061              -0.08306081       -14.71485        -62.21942        18.27876             -200               0             -200               0
1.31818              -0.08638651       -14.86292        -61.90492        13.35725             -200               0             -200               0
1.32576              -0.08980458       -15.01238        -61.60812        8.431702             -200               0             -200               0
1.33333               -0.0933117       -15.16328        -61.32835        3.507791             -200               0             -200               0
1.34091              -0.09690669       -15.31568        -61.06499       -1.409153             -200               0             -200               0
1.34848               -0.1005887       -15.46965        -60.81748       -6.314061             -200               0             -200               0
1.35606               -0.1043573       -15.62526        -60.58526       -11.20205             -200               0             -200               0
1.36364               -0.1082139        -15.7826        -60.36781       -16.06836             -200               0             -200               0
1.37121               -0.1121624       -15.94174        -60.16466       -20.90829             -200               0             -200               0
1.37879               -0.1162056       -16.10277         -59.9753       -25.71719             -200               0             -200               0
1.38636               -0.1203504       -16.26578        -59.79927       -30.49034             -200               0             -200               0
1.39394               -0.1246037       -16.43086        -59.63609       -35.22302             -200               0             -200               0
1.40152               -0.1289745       -16.59808        -59.48526       -39.91039             -200               0             -200               0
1.40909                -0.133472       -16.76753        -59.34628        -44.5475             -200               0             -200               0
1.41667               -0.1381082       -16.93928         -59.2186       -49.12929             -200               0             -200               0
1.42424               -0.1428965       -17.11341        -59.10163       -53.65056             -200               0             -200               0
1.43182               -0.1478501       -17.28998        -58.99476       -58.10596             -200               0             -200               0
1.43939               -0.1529824       -17.46904        -58.89727       -62.49004             -200               0             -200               0
1.44697               -0.1583106       -17.65065         -58.8084       -66.79725             -200               0             -200               0
1.45455               -0.1638504       -17.83485        -58.72725       -71.02199             -200               0             -200               0
1.46212               -0.1696172       -18.02166        -58.65286       -75.15866             -200               0             -200               0
1.4697                -0.1756282       -18.21111        -58.58411        -79.2018             -200               0             -200               0
1.47727               -0.1818991       -18.40321        -58.51976       -83.14613             -200               0             -200               0
1.48485               -0.1884454       -18.59797        -58.45842       -86.98679             -200               0             -200               0
1.49242               -0.1952843       -18.79537        -58.39851       -90.71949             -200               0             -200               0
1.5                    -0.202429       -18.99542        -58.33832       -94.34073             -200               0             -200               0
1.50758               -0.2098945       -19.19808        -58.27594        -97.8481             -200               0             -200               0
1.51515               -0.2176915       -19.40334        -58.20933       -101.2405             -200               0             -200               0
1.52273                -0.225834       -19.61118        -58.13629       -104.5187             -200               0             -200               0
1.5303                -0.2343309       -19.82156        -58.05453       -107.6851             -200               0             -200               0
1.53788               -0.2431919       -20.03444        -57.96171       -110.7447             -200               0             -200               0
1.54545               -0.2524245       -20.24981        -57.85551        -113.705             -200               0             -200               0
1.55303               -0.2620355       -20.46764        -57.73369       -116.5758             -200               0             -200               0
1.56061               -0.2720295       -20.68789         -57.5942       -119.3698             -200               0             -200               0
1.56818               -0.2824109       -20.91056        -57.43525       -122.1021             -200               0             -200               0
1.57576               -0.2931828       -21.13563        -57.25545       -124.7899             -200               0             -200               0
1.58333               -0.3043455        -21.3631        -57.05379       -127.4519             -200               0             -200               0
1.59091               -0.3159023       -21.59298         -56.8298        -130.108             -200               0             -200               0
1.59848               -0.3278528       -21.82528        -56.58349       -132.7781             -200               0             -200               0
1.60606               -0.3401977       -22.06003        -56.31538       -135.4816             -200               0             -200               0
1.61364               -0.3529387       -22.29727        -56.02648       -138.2369             -200               0             -200               0
1.62121               -0.3660743       -22.53706        -55.71819       -141.0604             -200               0             -200               0
1.62879               -0.3796068       -22.77945        -55.39224       -143.9662             -200               0             -200               0
1.63636               -0.3935385       -23.02454        -55.05059       -146.9661             -200               0             -200               0
1.64394               -0.4078718        -23.2724        -54.69534       -150.0691             -200               0             -200               0
1.65152               -0.4226121       -23.52315        -54.32867       -153.2817             -200               0             -200               0
1.65909               -0.4377639       -23.77689        -53.95271        -156.608             -200               0             -200               0
1.66667                -0.453336       -24.03375        -53.56954       -160.0499             -200               0             -200               0
1.67424               -0.4693382       -24.29385         -53.1811       -163.6076             -200               0             -200               0
1.68182                -0.485782       -24.55734         -52.7892       -167.2797             -200               0             -200               0
1.68939               -0.5026817       -24.82435        -52.39545       -171.0635             -200               0             -200               0
1.69697                -0.520055       -25.09503        -52.00132       -174.9555             -200               0             -200               0
1.70455               -0.5379198       -25.36953        -51.60808       -178.9515             -200               0             -200               0
1.71212               -0.5562993         -25.648        -51.21684        176.9533             -200               0             -200               0
1.7197                -0.5752166       -25.93059        -50.82855        172.7638             -200               0             -200               0
1.72727               -0.5946992       -26.21743        -50.44404         168.485             -200               0             -200               0
1.73485               -0.6147759       -26.50866        -50.06398        164.1221             -200               0             -200               0
1.74242               -0.6354775       -26.80443        -49.68893        159.6801             -200               0             -200               0
1.75                  -0.6568386       -27.10485        -49.31938        155.1639             -200               0             -200               0
1.75758               -0.6788937       -27.41004        -48.95569        150.5781             -200               0             -200               0
1.76515               -0.7016803        -27.7201        -48.59816        145.9274             -200               0             -200               0
1.77273                -0.725237       -28.03513        -48.24704        141.2159             -200               0             -200               0
1.7803                -0.7496036       -28.35523         -47.9025        136.4478             -200               0             -200               0
1.78788               -0.7748196       -28.68047        -47.56468        131.6267             -200               0             -200               0
1.79545               -0.8009282       -29.01091        -47.23366        126.7563             -200               0             -200               0
1.80303               -0.8279706       -29.34662        -46.90952          121.84             -200               0             -200               0
1.81061               -0.8559912       -29.68764        -46.59227        116.8807             -200               0             -200               0
1.81818               -0.8850317       -30.03402        -46.28193        111.8815             -200               0             -200               0
1.82576               -0.9151355       -30.38581        -45.97849         106.845             -200               0             -200               0
1.83333               -0.9463465       -30.74303        -45.68192        101.7737             -200               0             -200               0
1.84091               -0.9787082       -31.10572        -45.39218        96.67006             -200               0             -200               0
1.84848                -1.012263       -31.47391        -45.10921        91.53617             -200               0             -200               0
1.85606                -1.047056       -31.84764        -44.83297        86.37407             -200               0             -200               0
1.86364                 -1.08313       -32.22696        -44.56338        81.18566             -200               0             -200               0
1.87121                -1.120531        -32.6119        -44.30037        75.97271             -200               0             -200               0
1.87879                -1.159302       -33.00252        -44.04388        70.73684             -200               0             -200               0
1.88636                -1.199493        -33.3989        -43.79382        65.47958             -200               0             -200               0
1.89394                -1.241149        -33.8011        -43.55012        60.20237             -200               0             -200               0
1.90152                 -1.28432       -34.20922         -43.3127        54.90653             -200               0             -200               0
1.90909                 -1.32906       -34.62337        -43.08148        49.59329             -200               0             -200               0
1.91667                -1.375423       -35.04366        -42.85638        44.26384             -200               0             -200               0
1.92424                -1.423469       -35.47023        -42.63732        38.91925             -200               0             -200               0
1.93182                -1.473259       -35.90325        -42.42423        33.56053             -200               0             -200               0
1.93939                -1.524863       -36.34286        -42.21703        28.18866             -200               0             -200               0
1.94697                -1.578355       -36.78928        -42.01564        22.80451             -200               0             -200               0
1.95455                -1.633813       -37.24267           -41.82        17.40894             -200               0             -200               0
1.96212                -1.691325       -37.70327        -41.63002        12.00275             -200               0             -200               0
1.9697                 -1.750985       -38.17128        -41.44565        6.586664             -200               0             -200               0
1.97727                -1.812899       -38.64692        -41.26681        1.161407             -200               0             -200               0
1.98485                -1.877176       -39.13043        -41.09343       -4.272362             -200               0             -200               0
1.99242                -1.943941       -39.62203        -40.92546       -9.714013             -200               0             -200               0
2                      -2.013326       -40.12193        -40.76282       -15.16295             -200               0             -200               0
2.00758                -2.085475       -40.63035        -40.60547       -20.61861             -200               0             -200               0
2.01515                -2.160547       -41.14747        -40.45335       -26.08044             -200               0             -200               0
2.02273                 -2.23871       -41.67346        -40.30639       -31.54794             -200               0             -200               0
2.0303                 -2.320145       -42.20847        -40.16454       -37.02064             -200               0             -200               0
2.03788                -2.405048        -42.7526        -40.02776       -42.49806             -200               0             -200               0
2.04545                -2.493631       -43.30592        -39.89599       -47.97974             -200               0             -200               0
2.05303                -2.586116       -43.86844        -39.76918       -53.46528             -200               0             -200               0
2.06061                -2.682744       -44.44012        -39.64729       -58.95428             -200               0             -200               0
2.06818                -2.783773       -45.02086        -39.53028       -64.44632             -200               0             -200               0
2.07576                 -2.88947        -45.6105         -39.4181       -69.94105             -200               0             -200               0
2.08333                -3.000127       -46.20877        -39.31072       -75.43809             -200               0             -200               0
2.09091                -3.116049       -46.81536        -39.20808       -80.93711             -200               0             -200               0
2.09848                 -3.23756       -47.42981        -39.11016       -86.43776             -200               0             -200               0
2.10606                -3.365003       -48.05159        -39.01692       -91.93973             -200               0             -200               0
2.11364                -3.498741       -48.68006        -38.92833       -97.44268             -200               0             -200               0
2.12121                -3.639155       -49.31442        -38.84435       -102.9463             -200               0             -200               0
2.12879                -3.786651       -49.95377        -38.76496       -108.4504             -200               0             -200               0
2.13636                -3.941658       -50.59702        -38.69012       -113.9545             -200               0             -200               0
2.14394                -4.104628       -51.24295         -38.6198       -119.4584             -200               0             -200               0
2.15152                 -4.27604       -51.89013        -38.55399       -124.9619             -200               0             -200               0
2.15909                -4.456403       -52.53695        -38.49266       -130.4646             -200               0             -200               0
2.16667                -4.646257       -53.18155        -38.43577       -135.9663             -200               0             -200               0
2.17424                -4.846174       -53.82183        -38.38331       -141.4667             -200               0             -200               0
2.18182                -5.056767       -54.45539        -38.33527       -146.9656             -200               0             -200               0
2.18939                -5.278687       -55.07952        -38.29161       -152.4627             -200               0             -200               0
2.19697                -5.512634       -55.69113        -38.25233       -157.9578             -200               0             -200               0
2.20455                -5.759354        -56.2867        -38.21739       -163.4505             -200               0             -200               0
2.21212                -6.019656       -56.86222         -38.1868       -168.9407             -200               0             -200               0
2.2197                 -6.294406        -57.4131        -38.16053       -174.4281             -200               0             -200               0
2.22727                -6.584541       -57.93406        -38.13857       -179.9124             -200               0             -200               0
2.23485                -6.891078         -58.419         -38.1209        174.6065             -200               0             -200               0
2.24242                -7.215116       -58.86088        -38.10753        169.1291             -200               0             -200               0
2.25                   -7.557851       -59.25145        -38.09842        163.6554             -200               0             -200               0
2.25758                -7.920581       -59.58106        -38.09359        158.1858             -200               0             -200               0
2.26515                -8.304716        -59.8383        -38.09301        152.7206             -200               0             -200               0
2.27273                 -8.71178       -60.00963        -38.09668        147.2599             -200               0             -200               0
2.2803                 -9.143415       -60.07885        -38.10459         141.804             -200               0             -200               0
2.28788                -9.601377       -60.02637        -38.11674        136.3532             -200               0             -200               0
2.29545                 -10.0875       -59.82844        -38.13313        130.9078             -200               0             -200               0
2.30303                -10.60368       -59.45596        -38.15375         125.468             -200               0             -200               0
2.31061                -11.15174       -58.87307        -38.17859        120.0341             -200               0             -200               0
2.31818                -11.73331        -58.0353        -38.20766        114.6063             -200               0             -200               0
2.32576                -12.34954        -56.8873        -38.24096         109.185             -200               0             -200               0
2.33333                -13.00063       -55.36011        -38.27848        103.7705             -200               0             -200               0
2.34091                -13.68505       -53.36819        -38.32022        98.36297             -200               0             -200               0
2.34848                -14.39833       -50.80694        -38.36619        92.96279             -200               0             -200               0
2.35606                -15.13115       -47.55239        -38.41639        87.57025             -200               0             -200               0
2.36364                -15.86659       -43.46661        -38.47081        82.18566             -200               0             -200               0
2.37121                -16.57674       -38.41525        -38.52947        76.80934             -200               0             -200               0
2.37879                -17.21981       -32.30577        -38.59237        71.44163             -200               0             -200               0
2.38636                -17.74067       -25.15064        -38.65951        66.08285             -200               0             -200               0
2.39394                -18.07906       -17.13927         -38.7309        60.73337             -200               0             -200               0
2.40152                -18.18752       -8.667417        -38.80654        55.39353             -200               0             -200               0
2.40909                -18.05125      -0.2660259        -38.88643         50.0637             -200               0             -200               0
2.41667                -17.69531        7.557091        -38.97059        44.74426             -200               0             -200               0
2.42424                -17.17268        14.45964        -39.05902         39.4356             -200               0             -200               0
2.43182                -16.54357         20.3058        -39.15173        34.13814             -200               0             -200               0
2.43939                -15.85991        25.11871        -39.24872        28.85227             -200               0             -200               0
2.44697                -15.15951        29.00736           -39.35        23.57843             -200               0             -200               0
2.45455                -14.46692        32.10971        -39.45559        18.31707             -200               0             -200               0
2.46212                -13.79667        34.56093        -39.56548        13.06863             -200               0             -200               0
2.4697                 -13.15648        36.47982        -39.67968        7.833607             -200               0             -200               0
2.47727                -12.54982        37.96555        -39.79821        2.612476             -200               0             -200               0
2.48485                -11.97762        39.09874        -39.92106        -2.59425             -200               0             -200               0