! TOUCHSTONE file generated by CST MICROWAVE STUDIO
! Date and time: Tue Mar 18 20:31:37 2025
! Project name: hairline.cst
! Parameters = {B=12.5; D=160; F=15; Feed=2.85625; Fracture=2; L=100; M=50; R=0.384908; S=1.5; Theta=0; length=57.125; wave=114.25}
! Header version: 2024
! Port assignment regex: !\s*Touchstone port\s*([0-9]+)\s*=\s*(CST MWS port|CST DES external port|CST DES block port)\s*(.+)\s* \(\"(.*)\"\)(\s*mode\s*([0-9]+))?.*
! Touchstone port assignment:
! Touchstone port 1 = CST MWS port 1 ("")
! Touchstone port 2 = CST MWS port 2 ("")
# GHz S DB R 50
1                    -0.02025015       -9.986574        -68.03739        160.9832             -200               0             -200               0
1.0066               -0.02101571       -10.07547        -67.98047        155.2718             -200               0             -200               0
1.0132               -0.02179854       -10.16486        -67.95438         149.654             -200               0             -200               0
1.0198               -0.02259591       -10.25476         -67.9595        144.1366             -200               0             -200               0
1.0264                 -0.023407       -10.34519        -67.99637        138.7281             -200               0             -200               0
1.033                -0.02423095       -10.43615        -68.06569        133.4392             -200               0             -200               0
1.0396               -0.02506635       -10.52768        -68.16827        128.2832             -200               0             -200               0
1.0462               -0.02591268       -10.61978        -68.30507        123.2763             -200               0             -200               0
1.05281              -0.02676994        -10.7125        -68.47712        118.4387             -200               0             -200               0
1.05941              -0.02763862       -10.80585        -68.68551        113.7951             -200               0             -200               0
1.06601              -0.02851859       -10.89985        -68.93126        109.3762             -200               0             -200               0
1.07261              -0.02941084       -10.99454        -69.21521        105.2197             -200               0             -200               0
1.07921              -0.03031777       -11.08993        -69.53777        101.3723             -200               0             -200               0
1.08581              -0.03124087       -11.18605        -69.89852        97.89165             -200               0             -200               0
1.09241              -0.03218115       -11.28292        -70.29564        94.84831             -200               0             -200               0
1.09901              -0.03314211       -11.38056        -70.72493        92.32739             -200               0             -200               0
1.10561              -0.03412591       -11.47899         -71.1785         90.4285             -200               0             -200               0
1.11221              -0.03513717       -11.57824        -71.64272        89.26189             -200               0             -200               0
1.11881              -0.03617664        -11.6783        -72.09597        88.93664             -200               0             -200               0
1.12541              -0.03724858       -11.77919        -72.50639        89.53576             -200               0             -200               0
1.13201               -0.0383564       -11.88093        -72.83161        91.07472             -200               0             -200               0
1.13861              -0.03950351       -11.98351        -73.02289        93.44966             -200               0             -200               0
1.14521              -0.04069191       -12.08695        -73.03579        96.40164             -200               0             -200               0
1.15182               -0.0419257       -12.19124        -72.84487        99.53671             -200               0             -200               0
1.15842              -0.04320589       -12.29638        -72.45408        102.4167             -200               0             -200               0
1.16502              -0.04453521       -12.40237          -71.895        104.6769             -200               0             -200               0
1.17162              -0.04591618       -12.50922        -71.21436        106.1004             -200               0             -200               0
1.17822              -0.04735014       -12.61691        -70.45976        106.6196             -200               0             -200               0
1.18482              -0.04883654       -12.72543         -69.6708        106.2731             -200               0             -200               0
1.19142              -0.05037705        -12.8348        -68.87627        105.1546             -200               0             -200               0
1.19802               -0.0519717         -12.945        -68.09524        103.3759             -200               0             -200               0
1.20462              -0.05362001       -13.05603        -67.33936        101.0461             -200               0             -200               0
1.21122              -0.05532129        -13.1679        -66.61516        98.26214             -200               0             -200               0
1.21782              -0.05707387        -13.2806        -65.92582        95.10621             -200               0             -200               0
1.22442              -0.05887783       -13.39415        -65.27245        91.64655             -200               0             -200               0
1.23102              -0.06073023       -13.50855        -64.65491        87.93913             -200               0             -200               0
1.23762               -0.0626294       -13.62382        -64.07231        84.02969             -200               0             -200               0
1.24422              -0.06457453       -13.73997        -63.52341        79.95573             -200               0             -200               0
1.25083              -0.06656416       -13.85703        -63.00679        75.74814             -200               0             -200               0
1.25743              -0.06859476       -13.97502        -62.52095        71.43255             -200               0             -200               0
1.26403              -0.07066657       -14.09396        -62.06445        67.03039             -200               0             -200               0
1.27063               -0.0727786        -14.2139        -61.63587        62.55982             -200               0             -200               0
1.27723              -0.07492987       -14.33485        -61.23388        58.03632             -200               0             -200               0
1.28383              -0.07712017       -14.45688        -60.85726        53.47331             -200               0             -200               0
1.29043              -0.07935041          -14.58        -60.50485        48.88254             -200               0             -200               0
1.29703              -0.08162115       -14.70427        -60.17557        44.27445             -200               0             -200               0
1.30363               -0.0839341       -14.82973        -59.86843        39.65842             -200               0             -200               0
1.31023              -0.08629229       -14.95643        -59.58251        35.04304             -200               0             -200               0
1.31683              -0.08869783        -15.0844        -59.31692        30.43624             -200               0             -200               0
1.32343              -0.09115486        -15.2137        -59.07085        25.84547             -200               0             -200               0
1.33003              -0.09366821       -15.34436         -58.8435        21.27783             -200               0             -200               0
1.33663              -0.09624207       -15.47642        -58.63412        16.74013             -200               0             -200               0
1.34323              -0.09888271       -15.60993        -58.44196        12.23903             -200               0             -200               0
1.34984               -0.1015953       -15.74492        -58.26626        7.781049             -200               0             -200               0
1.35644               -0.1043864       -15.88142        -58.10627        3.372665             -200               0             -200               0
1.36304               -0.1072627       -16.01945        -57.96122      -0.9796766             -200               0             -200               0
1.36964               -0.1102309       -16.15904        -57.83028       -5.269536             -200               0             -200               0
1.37624               -0.1132989       -16.30022        -57.71259       -9.490467             -200               0             -200               0
1.38284               -0.1164725       -16.44299        -57.60723       -13.63603             -200               0             -200               0
1.38944               -0.1197586       -16.58737        -57.51316       -17.69984             -200               0             -200               0
1.39604               -0.1231643       -16.73337        -57.42929        -21.6756             -200               0             -200               0
1.40264               -0.1266957       -16.88099        -57.35437       -25.55718             -200               0             -200               0
1.40924               -0.1303582       -17.03024        -57.28705       -29.33879             -200               0             -200               0
1.41584               -0.1341577       -17.18111        -57.22584       -33.01507             -200               0             -200               0
1.42244               -0.1380983       -17.33361        -57.16906       -36.58129             -200               0             -200               0
1.42904               -0.1421855       -17.48773        -57.11491       -40.03362             -200               0             -200               0
1.43564               -0.1464218       -17.64347        -57.06141       -43.36932             -200               0             -200               0
1.44224               -0.1508103       -17.80084        -57.00645        -46.5871             -200               0             -200               0
1.44884               -0.1553548       -17.95983        -56.94778        -49.6874             -200               0             -200               0
1.45545               -0.1600559       -18.12044        -56.88307       -52.67266             -200               0             -200               0
1.46205               -0.1649163       -18.28268        -56.80997       -55.54764             -200               0             -200               0
1.46865               -0.1699359       -18.44657        -56.72613       -58.31958             -200               0             -200               0
1.47525               -0.1751164       -18.61212        -56.62933       -60.99833             -200               0             -200               0
1.48185               -0.1804583       -18.77934        -56.51755        -63.5963             -200               0             -200               0
1.48845                -0.185962       -18.94826        -56.38906       -66.12828             -200               0             -200               0
1.49505                -0.191629       -19.11891        -56.24248       -68.61104             -200               0             -200               0
1.50165                -0.197459       -19.29132        -56.07689       -71.06288             -200               0             -200               0
1.50825               -0.2034531       -19.46553        -55.89186        -73.5029             -200               0             -200               0
1.51485               -0.2096141        -19.6416        -55.68747       -75.95031             -200               0             -200               0
1.52145               -0.2159423       -19.81956        -55.46429        -78.4237             -200               0             -200               0
1.52805                -0.222442       -19.99948        -55.22335       -80.94035             -200               0             -200               0
1.53465               -0.2291154        -20.1814        -54.96609       -83.51565             -200               0             -200               0
1.54125               -0.2359688        -20.3654        -54.69424       -86.16273             -200               0             -200               0
1.54785               -0.2430056       -20.55153        -54.40976       -88.89216             -200               0             -200               0
1.55446               -0.2502318       -20.73985        -54.11472       -91.71191             -200               0             -200               0
1.56106               -0.2576572       -20.93044        -53.81128       -94.62739             -200               0             -200               0
1.56766               -0.2652868       -21.12335        -53.50152       -97.64166             -200               0             -200               0
1.57426               -0.2731319       -21.31866        -53.18748       -100.7556             -200               0             -200               0
1.58086               -0.2812007       -21.51641        -52.87106       -103.9685             -200               0             -200               0
1.58746               -0.2895064       -21.71667          -52.554       -107.2777             -200               0             -200               0
1.59406               -0.2980577       -21.91949        -52.23788       -110.6799             -200               0             -200               0
1.60066               -0.3068695       -22.12493         -51.9241       -114.1703             -200               0             -200               0
1.60726               -0.3159533       -22.33303        -51.61389       -117.7438             -200               0             -200               0
1.61386               -0.3253231       -22.54383         -51.3083       -121.3947             -200               0             -200               0
1.62046               -0.3349912       -22.75736        -51.00823       -125.1171             -200               0             -200               0
1.62706               -0.3449703       -22.97367        -50.71443       -128.9046             -200               0             -200               0
1.63366               -0.3552762       -23.19277        -50.42753       -132.7512             -200               0             -200               0
1.64026               -0.3659206       -23.41469        -50.14803       -136.6506             -200               0             -200               0
1.64686               -0.3769176       -23.63945        -49.87631       -140.5966             -200               0             -200               0
1.65347               -0.3882786       -23.86706        -49.61268       -144.5834             -200               0             -200               0
1.66007               -0.4000169       -24.09754        -49.35734       -148.6049             -200               0             -200               0
1.66667               -0.4121426        -24.3309        -49.11043       -152.6556             -200               0             -200               0
1.67327               -0.4246685       -24.56716        -48.87201       -156.7299             -200               0             -200               0
1.67987               -0.4376022       -24.80632        -48.64209       -160.8225             -200               0             -200               0
1.68647               -0.4509565       -25.04841         -48.4206       -164.9282             -200               0             -200               0
1.69307               -0.4647392       -25.29343        -48.20745        -169.042             -200               0             -200               0
1.69967               -0.4789581       -25.54142        -48.00247       -173.1592             -200               0             -200               0
1.70627               -0.4936225       -25.79241        -47.80546        -177.275             -200               0             -200               0
1.71287               -0.5087401       -26.04643        -47.61615        178.6149             -200               0             -200               0
1.71947               -0.5243185       -26.30353        -47.43426        174.5149             -200               0             -200               0
1.72607               -0.5403659       -26.56374        -47.25945        170.4291             -200               0             -200               0
1.73267               -0.5568893       -26.82715        -47.09131        166.3614             -200               0             -200               0
1.73927                -0.573899       -27.09381        -46.92942        162.3157             -200               0             -200               0
1.74587               -0.5914039       -27.36381        -46.77329        158.2954             -200               0             -200               0
1.75248               -0.6094136       -27.63723         -46.6224        154.3039             -200               0             -200               0
1.75908               -0.6279401       -27.91418        -46.47617        150.3443             -200               0             -200               0
1.76568               -0.6469941       -28.19476        -46.33397        146.4192             -200               0             -200               0
1.77228               -0.6665923       -28.47908        -46.19514        142.5311             -200               0             -200               0
1.77888               -0.6867494       -28.76726        -46.05896        138.6821             -200               0             -200               0
1.78548               -0.7074837       -29.05943        -45.92466        134.8739             -200               0             -200               0
1.79208                -0.728815       -29.35574        -45.79146        131.1075             -200               0             -200               0
1.79868               -0.7507661       -29.65631        -45.65851        127.3837             -200               0             -200               0
1.80528               -0.7733615       -29.96128        -45.52495        123.7024             -200               0             -200               0
1.81188               -0.7966281       -30.27079        -45.38992        120.0633             -200               0             -200               0
1.81848               -0.8205956         -30.585        -45.25253        116.4649             -200               0             -200               0
1.82508               -0.8452952       -30.90402         -45.1119        112.9055             -200               0             -200               0
1.83168               -0.8707621         -31.228        -44.96717        109.3824             -200               0             -200               0
1.83828               -0.8970314       -31.55706        -44.81752        105.8923             -200               0             -200               0
1.84488               -0.9241437       -31.89134         -44.6622         102.431             -200               0             -200               0
1.85149               -0.9521395       -32.23095         -44.5005        98.99386             -200               0             -200               0
1.85809               -0.9810608       -32.57599        -44.33182        95.57556             -200               0             -200               0
1.86469                -1.010952       -32.92657        -44.15565        92.17023             -200               0             -200               0
1.87129                -1.041861        -33.2828        -43.97161        88.77158             -200               0             -200               0
1.87789                -1.073833       -33.64474        -43.77943        85.37302             -200               0             -200               0
1.88449                 -1.10692       -34.01249        -43.57897        81.96781             -200               0             -200               0
1.89109                 -1.14117        -34.3861        -43.37024        78.54914             -200               0             -200               0
1.89769                -1.176635       -34.76566        -43.15336        75.11034             -200               0             -200               0
1.90429                -1.213367        -35.1512         -42.9286        71.64497             -200               0             -200               0
1.91089                -1.251422        -35.5428        -42.69633        68.14693             -200               0             -200               0
1.91749                -1.290849       -35.94051        -42.45703         64.6106             -200               0             -200               0
1.92409                -1.331706       -36.34437        -42.21126        61.03093             -200               0             -200               0
1.93069                 -1.37405       -36.75443        -41.95966        57.40342             -200               0             -200               0
1.93729                -1.417937       -37.17076        -41.70292        53.72428             -200               0             -200               0
1.94389                -1.463425       -37.59341        -41.44179        49.99033             -200               0             -200               0
1.9505                 -1.510578       -38.02246          -41.177        46.19907             -200               0             -200               0
1.9571                 -1.559454       -38.45796        -40.90934        42.34864             -200               0             -200               0
1.9637                 -1.610121           -38.9        -40.63955        38.43777             -200               0             -200               0
1.9703                 -1.662646       -39.34867        -40.36838        34.46574             -200               0             -200               0
1.9769                 -1.717101       -39.80408        -40.09654        30.43234             -200               0             -200               0
1.9835                 -1.773561       -40.26634        -39.82472        26.33781             -200               0             -200               0
1.9901                 -1.832106       -40.73558        -39.55356        22.18278             -200               0             -200               0
1.9967                 -1.892823       -41.21192        -39.28368        17.96821             -200               0             -200               0
2.0033                 -1.955802       -41.69553        -39.01563        13.69532             -200               0             -200               0
2.0099                 -2.021142       -42.18655        -38.74993        9.365587             -200               0             -200               0
2.0165                  -2.08895       -42.68515        -38.48706        4.980649             -200               0             -200               0
2.0231                  -2.15934        -43.1915        -38.22744        0.542287             -200               0             -200               0
2.0297                 -2.232438       -43.70577        -37.97147       -3.947617             -200               0             -200               0
2.0363                 -2.308375       -44.22812         -37.7195       -8.487106             -200               0             -200               0
2.0429                 -2.387297       -44.75871        -37.47184       -13.07419             -200               0             -200               0
2.0495                 -2.469361        -45.2977        -37.22876       -17.70685             -200               0             -200               0
2.05611                -2.554736       -45.84522        -36.99053       -22.38308             -200               0             -200               0
2.06271                -2.643604       -46.40137        -36.75734       -27.10087             -200               0             -200               0
2.06931                 -2.73616       -46.96626         -36.5294       -31.85827             -200               0             -200               0
2.07591                -2.832617       -47.53992        -36.30686       -36.65333             -200               0             -200               0
2.08251                -2.933199       -48.12235        -36.08987       -41.48417             -200               0             -200               0
2.08911                -3.038149       -48.71352        -35.87856       -46.34897             -200               0             -200               0
2.09571                -3.147726       -49.31332        -35.67303       -51.24594             -200               0             -200               0
2.10231                -3.262207       -49.92158        -35.47337       -56.17338             -200               0             -200               0
2.10891                -3.381884       -50.53806        -35.27966       -61.12961             -200               0             -200               0
2.11551                -3.507074       -51.16244        -35.09195       -66.11305             -200               0             -200               0
2.12211                -3.638107       -51.79428        -34.91031       -71.12216             -200               0             -200               0
2.12871                -3.775339       -52.43305        -34.73477       -76.15546             -200               0             -200               0
2.13531                -3.919146       -53.07814        -34.56537       -81.21153             -200               0             -200               0
2.14191                -4.069925       -53.72874        -34.40213       -86.28901             -200               0             -200               0
2.14851                -4.228099       -54.38395        -34.24508        -91.3866             -200               0             -200               0
2.15512                -4.394118        -55.0427        -34.09423       -96.50303             -200               0             -200               0
2.16172                -4.568457       -55.70376        -33.94959       -101.6371             -200               0             -200               0
2.16832                -4.751624       -56.36568        -33.81117       -106.7877             -200               0             -200               0
2.17492                -4.944154       -57.02682        -33.67896       -111.9536             -200               0             -200               0
2.18152                -5.146621        -57.6853        -33.55297       -117.1338             -200               0             -200               0
2.18812                -5.359636       -58.33896         -33.4332       -122.3273             -200               0             -200               0
2.19472                -5.583852       -58.98535        -33.31964        -127.533             -200               0             -200               0
2.20132                -5.819967       -59.62167        -33.21228       -132.7501             -200               0             -200               0
2.20792                -6.068733       -60.24475        -33.11112       -137.9775             -200               0             -200               0
2.21452                -6.330957       -60.85091        -33.01615       -143.2145             -200               0             -200               0
2.22112                 -6.60751       -61.43601        -32.92737         -148.46             -200               0             -200               0
2.22772                -6.899337       -61.99525        -32.84475       -153.7133             -200               0             -200               0
2.23432                 -7.20746       -62.52311         -32.7683       -158.9736             -200               0             -200               0
2.24092                -7.532991       -63.01318          -32.698         -164.24             -200               0             -200               0
2.24752                -7.877145       -63.45802        -32.63385       -169.5118             -200               0             -200               0
2.25413                -8.241246       -63.84892        -32.57584       -174.7882             -200               0             -200               0
2.26073                 -8.62674       -64.17558        -32.52396        179.9316             -200               0             -200               0
2.26733                -9.035214       -64.42582        -32.47819        174.6482             -200               0             -200               0
2.27393                -9.468394       -64.58505        -32.43855        169.3625             -200               0             -200               0
2.28053                -9.928161        -64.6357        -32.40501         164.075             -200               0             -200               0
2.28713                -10.41654       -64.55635        -32.37758        158.7866             -200               0             -200               0
2.29373                -10.93569       -64.32084        -32.35624        153.4979             -200               0             -200               0