! TOUCHSTONE file generated by CST MICROWAVE STUDIO
! Date and time: Tue Mar 18 20:31:56 2025
! Project name: hairline.cst
! Parameters = {B=12.5; D=160; F=25; Feed=2.85625; Fracture=2; L=100; M=30; R=0.384908; S=1.5; Theta=270; length=57.125; wave=114.25}
! Header version: 2024
! Port assignment regex: !\s*Touchstone port\s*([0-9]+)\s*=\s*(CST MWS port|CST DES external port|CST DES block port)\s*(.+)\s* \(\"(.*)\"\)(\s*mode\s*([0-9]+))?.*
! Touchstone port assignment:
! Touchstone port 1 = CST MWS port 1 ("")
! Touchstone port 2 = CST MWS port 2 ("")
# GHz S DB R 50
1                    -0.02149937       -9.999621         -65.9838        160.6363             -200               0             -200               0
1.0066               -0.02204235       -10.08694        -66.04208         154.776             -200               0             -200               0
1.0132               -0.02255176         -10.175        -66.13577        149.0325             -200               0             -200               0
1.0198                -0.0230315       -10.26386        -66.26631        143.4172             -200               0             -200               0
1.0264               -0.02348927       -10.35359        -66.43546        137.9444             -200               0             -200               0
1.033                -0.02393024       -10.44425        -66.64523        132.6329             -200               0             -200               0
1.0396               -0.02436501       -10.53588        -66.89793        127.5064             -200               0             -200               0
1.0462               -0.02480287       -10.62853        -67.19613        122.5954             -200               0             -200               0
1.05281              -0.02525333       -10.72222        -67.54265        117.9394             -200               0             -200               0
1.05941               -0.0257272       -10.81698        -67.94038        113.5895             -200               0             -200               0
1.06601              -0.02623615       -10.91281        -68.39205        109.6124             -200               0             -200               0
1.07261              -0.02679063       -11.00971        -68.89971        106.0952             -200               0             -200               0
1.07921              -0.02740136       -11.10766        -69.46367        103.1526             -200               0             -200               0
1.08581              -0.02807731       -11.20666        -70.08073        100.9334             -200               0             -200               0
1.09241              -0.02882825       -11.30666         -70.7409         99.6266             -200               0             -200               0
1.09901              -0.02966167       -11.40762        -71.42209        99.45877             -200               0             -200               0
1.10561              -0.03058418       -11.50949        -72.08237        100.6667             -200               0             -200               0
1.11221              -0.03160065       -11.61223        -72.65223        103.4196             -200               0             -200               0
1.11881              -0.03271492       -11.71577        -73.03512        107.6698             -200               0             -200               0
1.12541              -0.03392837       -11.82006        -73.13045        112.9869             -200               0             -200               0
1.13201              -0.03524135       -11.92504        -72.88048        118.5535             -200               0             -200               0
1.13861              -0.03665219       -12.03064         -72.3065        123.4545             -200               0             -200               0
1.14521              -0.03815703       -12.13683        -71.49469        127.0554             -200               0             -200               0
1.15182              -0.03975222       -12.24354        -70.54805        129.1402             -200               0             -200               0
1.15842              -0.04143039       -12.35075        -69.55009        129.7963             -200               0             -200               0
1.16502              -0.04318398       -12.45841        -68.55511        129.2425             -200               0             -200               0
1.17162              -0.04500589        -12.5665        -67.59353        127.7168             -200               0             -200               0
1.17822              -0.04688575       -12.67502        -66.68018        125.4285             -200               0             -200               0
1.18482              -0.04881474       -12.78397        -65.82081        122.5464             -200               0             -200               0
1.19142              -0.05078209       -12.89335        -65.01629        119.2019             -200               0             -200               0
1.19802              -0.05277979       -13.00318        -64.26505        115.4959             -200               0             -200               0
1.20462              -0.05479655       -13.11352        -63.56436        111.5059             -200               0             -200               0
1.21122               -0.0568256       -13.22439        -62.91113        107.2916             -200               0             -200               0
1.21782              -0.05885852       -13.33587        -62.30223        102.8996             -200               0             -200               0
1.22442              -0.06088919       -13.44802        -61.73467        98.36678             -200               0             -200               0
1.23102               -0.0629138       -13.56091        -61.20572        93.72241             -200               0             -200               0
1.23762              -0.06492713       -13.67462         -60.7129        88.99029             -200               0             -200               0
1.24422              -0.06692958       -13.78925          -60.254        84.18993             -200               0             -200               0
1.25083              -0.06892082       -13.90487        -59.82705        79.33762             -200               0             -200               0
1.25743              -0.07090366       -14.02158        -59.43028         74.4471             -200               0             -200               0
1.26403              -0.07288185       -14.13946        -59.06216        69.53025             -200               0             -200               0
1.27063              -0.07486144       -14.25859        -58.72129        64.59742             -200               0             -200               0
1.27723              -0.07685066       -14.37906        -58.40646        59.65788             -200               0             -200               0
1.28383              -0.07885857       -14.50094        -58.11659        54.71998             -200               0             -200               0
1.29043              -0.08089546       -14.62428         -57.8507         49.7915             -200               0             -200               0
1.29703              -0.08297385       -14.74913        -57.60793        44.87975             -200               0             -200               0
1.30363              -0.08510521       -14.87555        -57.38748        39.99174             -200               0             -200               0
1.31023              -0.08730195       -15.00354        -57.18865        35.13431             -200               0             -200               0
1.31683              -0.08957918       -15.13314        -57.01078        30.31426             -200               0             -200               0
1.32343                -0.091949       -15.26435        -56.85325        25.53845             -200               0             -200               0
1.33003              -0.09442362       -15.39715        -56.71548        20.81387             -200               0             -200               0
1.33663              -0.09701461       -15.53152        -56.59689        16.14773             -200               0             -200               0
1.34323              -0.09973323       -15.66745         -56.4969        11.54756             -200               0             -200               0
1.34984               -0.1025894       -15.80487        -56.41491        7.021255             -200               0             -200               0
1.35644               -0.1055899       -15.94376        -56.35028        2.577124             -200               0             -200               0
1.36304               -0.1087411       -16.08406        -56.30231       -1.776034             -200               0             -200               0
1.36964               -0.1120476       -16.22571        -56.27018       -6.028917             -200               0             -200               0
1.37624               -0.1155123       -16.36866        -56.25299       -10.17171             -200               0             -200               0
1.38284                -0.119135       -16.51286        -56.24965        -14.1941             -200               0             -200               0
1.38944               -0.1229136       -16.65823        -56.25887       -18.08537             -200               0             -200               0
1.39604               -0.1268463       -16.80476        -56.27914       -21.83448             -200               0             -200               0
1.40264               -0.1309258       -16.95238        -56.30865       -25.43033             -200               0             -200               0
1.40924               -0.1351467       -17.10108        -56.34525       -28.86202             -200               0             -200               0
1.41584               -0.1395019       -17.25083        -56.38641        -32.1193             -200               0             -200               0
1.42244               -0.1439806       -17.40163        -56.42917       -35.19313             -200               0             -200               0
1.42904               -0.1485746       -17.55348        -56.47015       -38.07643             -200               0             -200               0
1.43564               -0.1532731       -17.70641         -56.5055       -40.76492             -200               0             -200               0
1.44224               -0.1580662       -17.86045        -56.53102       -43.25814             -200               0             -200               0
1.44884                -0.162945       -18.01567        -56.54217       -45.56044             -200               0             -200               0
1.45545               -0.1679005       -18.17211        -56.53429       -47.68197             -200               0             -200               0
1.46205               -0.1729239       -18.32987        -56.50279       -49.63933             -200               0             -200               0
1.46865               -0.1780101       -18.48905        -56.44342       -51.45587             -200               0             -200               0
1.47525               -0.1831545       -18.64973        -56.35257       -53.16135             -200               0             -200               0
1.48185               -0.1883543       -18.81205        -56.22756       -54.79087             -200               0             -200               0
1.48845               -0.1936099       -18.97611        -56.06688       -56.38319             -200               0             -200               0
1.49505               -0.1989221       -19.14205        -55.87028       -57.97849             -200               0             -200               0
1.50165               -0.2042962          -19.31        -55.63886       -59.61592             -200               0             -200               0
1.50825                -0.209739       -19.48008        -55.37489       -61.33136             -200               0             -200               0
1.51485               -0.2152609       -19.65243         -55.0816       -63.15555             -200               0             -200               0
1.52145               -0.2208736       -19.82715        -54.76294       -65.11296             -200               0             -200               0
1.52805               -0.2265908       -20.00438        -54.42324       -67.22126             -200               0             -200               0
1.53465               -0.2324287       -20.18419        -54.06693       -69.49157             -200               0             -200               0
1.54125               -0.2384055       -20.36671        -53.69835       -71.92899             -200               0             -200               0
1.54785               -0.2445405       -20.55198        -53.32154        -74.5336             -200               0             -200               0
1.55446               -0.2508538       -20.74009        -52.94016       -77.30145             -200               0             -200               0
1.56106               -0.2573663       -20.93109         -52.5574       -80.22555             -200               0             -200               0
1.56766                -0.264101       -21.12499        -52.17602       -83.29679             -200               0             -200               0
1.57426                -0.271076       -21.32182        -51.79833       -86.50469             -200               0             -200               0
1.58086               -0.2783153       -21.52158        -51.42621       -89.83802             -200               0             -200               0
1.58746               -0.2858354       -21.72425         -51.0612       -93.28523             -200               0             -200               0
1.59406               -0.2936545       -21.92981        -50.70448       -96.83478             -200               0             -200               0
1.60066               -0.3017902       -22.13823          -50.357       -100.4754             -200               0             -200               0
1.60726               -0.3102576       -22.34944        -50.01943       -104.1963             -200               0             -200               0
1.61386               -0.3190658       -22.56341        -49.69225       -107.9871             -200               0             -200               0
1.62046               -0.3282266       -22.78008        -49.37579       -111.8378             -200               0             -200               0
1.62706               -0.3377471       -22.99938        -49.07021       -115.7394             -200               0             -200               0
1.63366               -0.3476297       -23.22127        -48.77557        -119.683             -200               0             -200               0
1.64026               -0.3578782        -23.4457        -48.49182       -123.6604             -200               0             -200               0
1.64686                -0.368492       -23.67262        -48.21883        -127.664             -200               0             -200               0
1.65347               -0.3794673       -23.90202        -47.95638       -131.6865             -200               0             -200               0
1.66007               -0.3907997       -24.13387         -47.7042        -135.721             -200               0             -200               0
1.66667               -0.4024826       -24.36819        -47.46195       -139.7613             -200               0             -200               0
1.67327               -0.4145094       -24.60499        -47.22923       -143.8012             -200               0             -200               0
1.67987               -0.4268705       -24.84434         -47.0056       -147.8351             -200               0             -200               0
1.68647               -0.4395583       -25.08629        -46.79056       -151.8579             -200               0             -200               0
1.69307               -0.4525639       -25.33094        -46.58357       -155.8644             -200               0             -200               0
1.69967               -0.4658793        -25.5784        -46.38401       -159.8502             -200               0             -200               0
1.70627               -0.4794991       -25.82883        -46.19126        -163.811             -200               0             -200               0
1.71287               -0.4934194       -26.08238        -46.00462       -167.7429             -200               0             -200               0
1.71947               -0.5076384       -26.33924        -45.82334       -171.6427             -200               0             -200               0
1.72607               -0.5221566       -26.59962        -45.64665       -175.5071             -200               0             -200               0
1.73267               -0.5369792       -26.86373         -45.4737       -179.3338             -200               0             -200               0
1.73927                -0.552114       -27.13182        -45.30363        176.8793             -200               0             -200               0
1.74587                -0.567574       -27.40414        -45.13553        173.1336             -200               0             -200               0
1.75248               -0.5833758       -27.68095        -44.96845        169.4299             -200               0             -200               0
1.75908               -0.5995411        -27.9625        -44.80143        165.7684             -200               0             -200               0
1.76568               -0.6160944       -28.24907        -44.63351        162.1485             -200               0             -200               0
1.77228               -0.6330684       -28.54091        -44.46371        158.5689             -200               0             -200               0
1.77888               -0.6504969       -28.83827        -44.29107        155.0275             -200               0             -200               0
1.78548               -0.6684188        -29.1414        -44.11468        151.5215             -200               0             -200               0
1.79208               -0.6868774       -29.45054        -43.93366        148.0471             -200               0             -200               0
1.79868               -0.7059202       -29.76588        -43.74719        144.5999             -200               0             -200               0
1.80528                -0.725595       -30.08765        -43.55457        141.1749             -200               0             -200               0
1.81188               -0.7459569         -30.416        -43.35517        137.7664             -200               0             -200               0
1.81848                -0.767059        -30.7511        -43.14849        134.3681             -200               0             -200               0
1.82508                 -0.78896       -31.09309        -42.93417        130.9733             -200               0             -200               0
1.83168               -0.8117159       -31.44207        -42.71195        127.5752             -200               0             -200               0
1.83828               -0.8353855       -31.79815        -42.48177        124.1667             -200               0             -200               0
1.84488               -0.8600292       -32.16139        -42.24366         120.741             -200               0             -200               0
1.85149               -0.8857045       -32.53185        -41.99781        117.2912             -200               0             -200               0
1.85809               -0.9124694       -32.90959        -41.74455        113.8109             -200               0             -200               0
1.86469               -0.9403823       -33.29463        -41.48431        110.2941             -200               0             -200               0
1.87129               -0.9694987       -33.68699        -41.21762        106.7353             -200               0             -200               0
1.87789               -0.9998732        -34.0867         -40.9451        103.1297             -200               0             -200               0
1.88449                -1.031561       -34.49378        -40.66744        99.47307             -200               0             -200               0
1.89109                -1.064615       -34.90825        -40.38538        95.76194             -200               0             -200               0
1.89769                -1.099086       -35.33014        -40.09967        91.99353             -200               0             -200               0
1.90429                -1.135028        -35.7595         -39.8111        88.16571             -200               0             -200               0
1.91089                 -1.17249        -36.1964        -39.52044        84.27704             -200               0             -200               0
1.91749                -1.211526       -36.64092        -39.22845        80.32663             -200               0             -200               0
1.92409                 -1.25219       -37.09315        -38.93588        76.31417             -200               0             -200               0
1.93069                -1.294538       -37.55325        -38.64344        72.23982             -200               0             -200               0
1.93729                -1.338628       -38.02136        -38.35179        68.10417             -200               0             -200               0
1.94389                -1.384523       -38.49767        -38.06156        63.90818             -200               0             -200               0
1.9505                 -1.432292       -38.98242        -37.77334         59.6531             -200               0             -200               0
1.9571                 -1.482008       -39.47583        -37.48767        55.34044             -200               0             -200               0
1.9637                 -1.533754       -39.97819        -37.20502        50.97192             -200               0             -200               0
1.9703                 -1.587619       -40.48981        -36.92586        46.54938             -200               0             -200               0
1.9769                 -1.643701         -41.011        -36.65057         42.0748             -200               0             -200               0
1.9835                 -1.702115       -41.54211        -36.37952        37.55024             -200               0             -200               0
1.9901                  -1.76298       -42.08349        -36.11304        32.97779             -200               0             -200               0
1.9967                 -1.826433        -42.6355         -35.8514        28.35957             -200               0             -200               0
2.0033                 -1.892624       -43.19849        -35.59485         23.6977             -200               0             -200               0
2.0099                 -1.961715       -43.77283        -35.34361         18.9943             -200               0             -200               0
2.0165                 -2.033889       -44.35885        -35.09788        14.25144             -200               0             -200               0
2.0231                 -2.109337       -44.95686        -34.85781        9.471158             -200               0             -200               0
2.0297                 -2.188278       -45.56712        -34.62355        4.655442             -200               0             -200               0
2.0363                 -2.270941       -46.18989        -34.39521      -0.1937736             -200               0             -200               0
2.0429                 -2.357575       -46.82533         -34.1729       -5.074614             -200               0             -200               0
2.0495                 -2.448447       -47.47355        -33.95671       -9.985264             -200               0             -200               0
2.05611                -2.543843       -48.13459         -33.7467       -14.92397             -200               0             -200               0
2.06271                -2.644069       -48.80842        -33.54292       -19.88905             -200               0             -200               0
2.06931                -2.749448       -49.49489        -33.34543       -24.87889             -200               0             -200               0
2.07591                -2.860327       -50.19375        -33.15426       -29.89191             -200               0             -200               0
2.08251                -2.977068       -50.90464        -32.96943       -34.92661             -200               0             -200               0
2.08911                -3.100055       -51.62709        -32.79096       -39.98156             -200               0             -200               0
2.09571                -3.229694       -52.36046        -32.61887       -45.05538             -200               0             -200               0
2.10231                -3.366412       -53.10398        -32.45315       -50.14672             -200               0             -200               0
2.10891                -3.510657       -53.85674        -32.29382       -55.25431             -200               0             -200               0
2.11551                -3.662899       -54.61762        -32.14085       -60.37693             -200               0             -200               0
2.12211                -3.823635       -55.38534        -31.99426       -65.51338             -200               0             -200               0
2.12871                -3.993385       -56.15843        -31.85402       -70.66252             -200               0             -200               0
2.13531                -4.172698       -56.93515        -31.72012       -75.82327             -200               0             -200               0
2.14191                -4.362154       -57.71357        -31.59255       -80.99454             -200               0             -200               0
2.14851                -4.562361       -58.49147         -31.4713       -86.17533             -200               0             -200               0
2.15512                -4.773967       -59.26634        -31.35633       -91.36463             -200               0             -200               0
2.16172                -4.997653       -60.03536        -31.24764       -96.56148             -200               0             -200               0
2.16832                 -5.23415        -60.7953         -31.1452        -101.765             -200               0             -200               0
2.17492                -5.484232       -61.54255          -31.049       -106.9741             -200               0             -200               0
2.18152                -5.748728       -62.27299          -30.959       -112.1881             -200               0             -200               0
2.18812                -6.028527       -62.98195        -30.87519       -117.4061             -200               0             -200               0
2.19472                -6.324586       -63.66409        -30.79754       -122.6272             -200               0             -200               0
2.20132                -6.637934       -64.31332        -30.72604       -127.8505             -200               0             -200               0
2.20792                 -6.96969       -64.92261        -30.66066       -133.0753             -200               0             -200               0
2.21452                -7.321059       -65.48384        -30.60137       -138.3008             -200               0             -200               0
2.22112                -7.693358       -65.98755        -30.54817       -143.5262             -200               0             -200               0
2.22772                 -8.08801       -66.42262        -30.50102       -148.7507             -200               0             -200               0
2.23432                -8.506565       -66.77595        -30.45989       -153.9734             -200               0             -200               0
2.24092                -8.950699       -67.03192        -30.42478       -159.1937             -200               0             -200               0
2.24752                -9.422216       -67.17179        -30.39566       -164.4108             -200               0             -200               0
2.25413                -9.923038       -67.17286        -30.37251        -169.624             -200               0             -200               0
2.26073                -10.45517       -67.00744         -30.3553       -174.8324             -200               0             -200               0
2.26733                -11.02064       -66.64144        -30.34401        179.9648             -200               0             -200               0
2.27393                -11.62136       -66.03258        -30.33862        174.7682             -200               0             -200               0
2.28053                -12.25894       -65.12813        -30.33911        169.5786             -200               0             -200               0
2.28713                -12.93427       -63.86207        -30.34545        164.3969             -200               0             -200               0
2.29373                -13.64687       -62.15182        -30.35762        159.2237             -200               0             -200               0