! TOUCHSTONE file generated by CST MICROWAVE STUDIO
! Date and time: Tue Mar 18 20:31:42 2025
! Project name: hairline.cst
! Parameters = {B=12.5; D=160; F=15; Feed=2.85625; Fracture=2; L=100; M=50; R=0.384908; S=1.5; Theta=90; length=57.125; wave=114.25}
! Header version: 2024
! Port assignment regex: !\s*Touchstone port\s*([0-9]+)\s*=\s*(CST MWS port|CST DES external port|CST DES block port)\s*(.+)\s* \(\"(.*)\"\)(\s*mode\s*([0-9]+))?.*
! Touchstone port assignment:
! Touchstone port 1 = CST MWS port 1 ("")
! Touchstone port 2 = CST MWS port 2 ("")
# GHz S DB R 50
1                    -0.02005561        -9.99305        -68.82008        162.9449             -200               0             -200               0
1.00658              -0.02084172       -10.08189        -68.73327        157.6107             -200               0             -200               0
1.01316              -0.02164817       -10.17119        -68.67528        152.3681             -200               0             -200               0
1.01974              -0.02247488       -10.26096        -68.64606        147.2252             -200               0             -200               0
1.02632              -0.02331749       -10.35122        -68.64566        142.1917             -200               0             -200               0
1.03289              -0.02417546       -10.44197        -68.67418        137.2792             -200               0             -200               0
1.03947              -0.02504513       -10.53324        -68.73177        132.5013             -200               0             -200               0
1.04605               -0.0259267       -10.62505        -68.81856        127.8744             -200               0             -200               0
1.05263              -0.02681911       -10.71742        -68.93461        123.4177             -200               0             -200               0
1.05921              -0.02771914       -10.81037        -69.07983        119.1539             -200               0             -200               0
1.06579              -0.02862824       -10.90394        -69.25384        115.1101             -200               0             -200               0
1.07237              -0.02954618       -10.99815        -69.45584        111.3179             -200               0             -200               0
1.07895              -0.03047276       -11.09303        -69.68434        107.8142             -200               0             -200               0
1.08553              -0.03140925       -11.18861        -69.93683        104.6417             -200               0             -200               0
1.09211              -0.03235803       -11.28492        -70.20937        101.8484             -200               0             -200               0
1.09868              -0.03332196       -11.38198        -70.49596        99.48683             -200               0             -200               0
1.10526               -0.0343013       -11.47983         -70.7879        97.61126             -200               0             -200               0
1.11184              -0.03529956       -11.57847        -71.07301        96.27213             -200               0             -200               0
1.11842              -0.03632184       -11.67795        -71.33512        95.50718             -200               0             -200               0
1.125                 -0.0373697       -11.77827        -71.55401        95.32831             -200               0             -200               0
1.13158              -0.03844783       -11.87944        -71.70646        95.70579             -200               0             -200               0
1.13816              -0.03955951       -11.98149        -71.76883        96.55421             -200               0             -200               0
1.14474              -0.04071022       -12.08442        -71.72117        97.72776             -200               0             -200               0
1.15132              -0.04189966       -12.18823        -71.55174        99.03207             -200               0             -200               0
1.15789              -0.04313569       -12.29293        -71.26009        100.2534             -200               0             -200               0
1.16447              -0.04441816       -12.39852        -70.85716        101.1953             -200               0             -200               0
1.17105              -0.04575294       -12.50499        -70.36234        101.7091             -200               0             -200               0
1.17763              -0.04713956       -12.61234        -69.79894        101.7061             -200               0             -200               0
1.18421              -0.04858246       -12.72057        -69.19005        101.1541             -200               0             -200               0
1.19079              -0.05008278       -12.82966        -68.55587        100.0635             -200               0             -200               0
1.19737              -0.05164015       -12.93962        -67.91257        98.47154             -200               0             -200               0
1.20395              -0.05325477       -13.05043        -67.27227         96.4288             -200               0             -200               0
1.21053              -0.05492955       -13.16209         -66.6436        93.99022             -200               0             -200               0
1.21711              -0.05666005        -13.2746        -66.03237        91.20934             -200               0             -200               0
1.22368              -0.05844906       -13.38795        -65.44235        88.13552             -200               0             -200               0
1.23026              -0.06029156       -13.50215        -64.87578        84.81274             -200               0             -200               0
1.23684              -0.06218847        -13.6172        -64.33387        81.27947             -200               0             -200               0
1.24342              -0.06413665       -13.73311        -63.81706        77.56897             -200               0             -200               0
1.25                 -0.06613437        -13.8499        -63.32536        73.70991             -200               0             -200               0
1.25658              -0.06817923       -13.96759        -62.85843        69.72693             -200               0             -200               0
1.26316              -0.07027041       -14.08619        -62.41573        65.64128             -200               0             -200               0
1.26974              -0.07240335       -14.20573        -61.99662        61.47137             -200               0             -200               0
1.27632              -0.07457948       -14.32624        -61.60039        57.23321             -200               0             -200               0
1.28289              -0.07679445       -14.44776        -61.22628        52.94087             -200               0             -200               0
1.28947              -0.07905018       -14.57033        -60.87355        48.60678             -200               0             -200               0
1.29605              -0.08134593       -14.69399        -60.54144        44.24204             -200               0             -200               0
1.30263              -0.08368279       -14.81878        -60.22923        39.85666             -200               0             -200               0
1.30921              -0.08605964       -14.94475        -59.93619        35.45976             -200               0             -200               0
1.31579              -0.08848043       -15.07195        -59.66162        31.05973             -200               0             -200               0
1.32237              -0.09094724       -15.20042        -59.40485        26.66439             -200               0             -200               0
1.32895              -0.09346344       -15.33022         -59.1652        22.28108             -200               0             -200               0
1.33553              -0.09603298       -15.46138          -58.942        17.91678             -200               0             -200               0
1.34211              -0.09866161       -15.59395        -58.73457        13.57819             -200               0             -200               0
1.34868               -0.1013556       -15.72798        -58.54225        9.271767             -200               0             -200               0
1.35526               -0.1041191        -15.8635        -58.36433          5.0038             -200               0             -200               0
1.36184               -0.1069591       -16.00056         -58.2001       0.7804404             -200               0             -200               0
1.36842               -0.1098839       -16.13917        -58.04879       -3.392281             -200               0             -200               0
1.375                 -0.1129002       -16.27937         -57.9096        -7.50845             -200               0             -200               0
1.38158               -0.1160152       -16.42117        -57.78168       -11.56227             -200               0             -200               0
1.38816               -0.1192374       -16.56461         -57.6641       -15.54809             -200               0             -200               0
1.39474               -0.1225722       -16.70969        -57.55585       -19.46045             -200               0             -200               0
1.40132               -0.1260289       -16.85641        -57.45583       -23.29416             -200               0             -200               0
1.40789               -0.1296135        -17.0048        -57.36286       -27.04437             -200               0             -200               0
1.41447               -0.1333331       -17.15483        -57.27563       -30.70669             -200               0             -200               0
1.42105               -0.1371923       -17.30652        -57.19272       -34.27731             -200               0             -200               0
1.42763               -0.1411967       -17.45987        -57.11262       -37.75321             -200               0             -200               0
1.43421               -0.1453521       -17.61486        -57.03369       -41.13228             -200               0             -200               0
1.44079               -0.1496632       -17.77151        -56.95418       -44.41358             -200               0             -200               0
1.44737               -0.1541318       -17.92978        -56.87229       -47.59745             -200               0             -200               0
1.45395               -0.1587616        -18.0897        -56.78615       -50.68584             -200               0             -200               0
1.46053               -0.1635549       -18.25125        -56.69386       -53.68234             -200               0             -200               0
1.46711                -0.168513       -18.41444        -56.59355       -56.59243             -200               0             -200               0
1.47368               -0.1736369       -18.57928        -56.48345       -59.42346             -200               0             -200               0
1.48026               -0.1789276       -18.74577         -56.3619        -62.1847             -200               0             -200               0
1.48684               -0.1843853       -18.91393        -56.22746       -64.88716             -200               0             -200               0
1.49342               -0.1900107       -19.08378        -56.07894       -67.54344             -200               0             -200               0
1.5                   -0.1958032       -19.25535        -55.91544       -70.16734             -200               0             -200               0
1.50658               -0.2017643       -19.42867        -55.73644       -72.77349             -200               0             -200               0
1.51316               -0.2078931       -19.60378        -55.54175       -75.37689             -200               0             -200               0
1.51974               -0.2141929       -19.78071         -55.3316       -77.99234             -200               0             -200               0
1.52632               -0.2206627       -19.95953        -55.10652       -80.63406             -200               0             -200               0
1.53289               -0.2273061       -20.14028         -54.8674       -83.31513             -200               0             -200               0
1.53947                -0.234126       -20.32302         -54.6154       -86.04725             -200               0             -200               0
1.54605               -0.2411255       -20.50782        -54.35188       -88.84037             -200               0             -200               0
1.55263               -0.2483104       -20.69474        -54.07839       -91.70262             -200               0             -200               0
1.55921               -0.2556863       -20.88384        -53.79655        -94.6402             -200               0             -200               0
1.56579               -0.2632598        -21.0752        -53.50802       -97.65746             -200               0             -200               0
1.57237               -0.2710381       -21.26888        -53.21446        -100.757             -200               0             -200               0
1.57895               -0.2790313       -21.46494        -52.91747       -103.9398             -200               0             -200               0
1.58553                 -0.28725       -21.66346        -52.61859       -107.2053             -200               0             -200               0
1.59211               -0.2957027       -21.86449        -52.31923       -110.5521             -200               0             -200               0
1.59868               -0.3044027        -22.0681        -52.02067       -113.9775             -200               0             -200               0
1.60526               -0.3133621       -22.27433         -51.7241       -117.4781             -200               0             -200               0
1.61184               -0.3225941       -22.48324        -51.43056       -121.0498             -200               0             -200               0
1.61842               -0.3321119       -22.69487        -51.14095       -124.6883             -200               0             -200               0
1.625                 -0.3419296       -22.90925        -50.85606       -128.3885             -200               0             -200               0
1.63158               -0.3520611       -23.12644        -50.57657       -132.1457             -200               0             -200               0
1.63816               -0.3625202       -23.34644        -50.30304       -135.9544             -200               0             -200               0
1.64474               -0.3733208       -23.56929        -50.03594       -139.8097             -200               0             -200               0
1.65132                -0.384477       -23.79501        -49.77563       -143.7062             -200               0             -200               0
1.65789               -0.3960018       -24.02361         -49.5224       -147.6387             -200               0             -200               0
1.66447               -0.4079072       -24.25511        -49.27647       -151.6022             -200               0             -200               0
1.67105               -0.4202059       -24.48951        -49.03797       -155.5917             -200               0             -200               0
1.67763               -0.4329096       -24.72684        -48.80699       -159.6023             -200               0             -200               0
1.68421               -0.4460284       -24.96709        -48.58355       -163.6292             -200               0             -200               0
1.69079               -0.4595735       -25.21029         -48.3676       -167.6678             -200               0             -200               0
1.69737               -0.4735541       -25.45646        -48.15905       -171.7135             -200               0             -200               0
1.70395               -0.4879791        -25.7056        -47.95778       -175.7621             -200               0             -200               0
1.71053               -0.5028562       -25.95775        -47.76359       -179.8092             -200               0             -200               0
1.71711               -0.5181942       -26.21294        -47.57625        176.1491             -200               0             -200               0
1.72368               -0.5340015       -26.47122        -47.39548        172.1169             -200               0             -200               0
1.73026               -0.5502851       -26.73263        -47.22097        168.0979             -200               0             -200               0
1.73684               -0.5670535       -26.99722        -47.05235        164.0956             -200               0             -200               0
1.74342               -0.5843149       -27.26507        -46.88921        160.1134             -200               0             -200               0
1.75                  -0.6020775       -27.53626        -46.73108        156.1547             -200               0             -200               0
1.75658                -0.620354       -27.81087        -46.57748        152.2222             -200               0             -200               0
1.76316               -0.6391533       -28.08899        -46.42785        148.3186             -200               0             -200               0
1.76974               -0.6584883       -28.37074         -46.2816        144.4465             -200               0             -200               0
1.77632               -0.6783733       -28.65623        -46.13812        140.6078             -200               0             -200               0
1.78289                -0.698824       -28.94558        -45.99672        136.8043             -200               0             -200               0
1.78947               -0.7198575       -29.23892        -45.85669        133.0372             -200               0             -200               0
1.79605               -0.7414947       -29.53638         -45.7173        129.3073             -200               0             -200               0
1.80263               -0.7637572        -29.8381        -45.57778        125.6151             -200               0             -200               0
1.80921                -0.786671       -30.14423        -45.43735        121.9602             -200               0             -200               0
1.81579               -0.8102608       -30.45491        -45.29521        118.3419             -200               0             -200               0
1.82237               -0.8345587       -30.77027        -45.15056        114.7587             -200               0             -200               0
1.82895               -0.8595943       -31.09047        -45.00262        111.2088             -200               0             -200               0
1.83553               -0.8854045       -31.41563        -44.85064        107.6893             -200               0             -200               0
1.84211               -0.9120239       -31.74589         -44.6939        104.1969             -200               0             -200               0
1.84868               -0.9394929       -32.08137        -44.53175        100.7279             -200               0             -200               0
1.85526               -0.9678533       -32.42221        -44.36357        97.27754             -200               0             -200               0
1.86184                -0.997147        -32.7685        -44.18888          93.841             -200               0             -200               0
1.86842                -1.027421       -33.12035        -44.00725        90.41282             -200               0             -200               0
1.875                  -1.058721       -33.47787        -43.81838        86.98723             -200               0             -200               0
1.88158                -1.091095       -33.84113        -43.62205        83.55826             -200               0             -200               0
1.88816                -1.124595       -34.21021         -43.4182        80.11979             -200               0             -200               0
1.89474                 -1.15927       -34.58519        -43.20686        76.66575             -200               0             -200               0
1.90132                -1.195173       -34.96614        -42.98818        73.19015             -200               0             -200               0
1.90789                -1.232357        -35.3531        -42.76242        69.68727             -200               0             -200               0
1.91447                -1.270875       -35.74614        -42.52993         66.1517             -200               0             -200               0
1.92105                -1.310785       -36.14531        -42.29116        62.57845             -200               0             -200               0
1.92763                 -1.35214       -36.55065        -42.04665        58.96303             -200               0             -200               0
1.93421                -1.394999       -36.96223        -41.79696        55.30148             -200               0             -200               0
1.94079                -1.439419       -37.38009        -41.54275        51.59042             -200               0             -200               0
1.94737                 -1.48546       -37.80428        -41.28466        47.82703             -200               0             -200               0
1.95395                -1.533184       -38.23488         -41.0234        44.00906             -200               0             -200               0
1.96053                -1.582655       -38.67194        -40.75965        40.13486             -200               0             -200               0
1.96711                -1.633938       -39.11555        -40.49411        36.20326             -200               0             -200               0
1.97368                -1.687101        -39.5658        -40.22744         32.2136             -200               0             -200               0
1.98026                -1.742219       -40.02279         -39.9603        28.16568             -200               0             -200               0
1.98684                -1.799367       -40.48662        -39.69333        24.05967             -200               0             -200               0
1.99342                -1.858626       -40.95743        -39.42711        19.89612             -200               0             -200               0
2                      -1.920084       -41.43534        -39.16221        15.67586             -200               0             -200               0
2.00658                -1.983832       -41.92049        -38.89914        11.39998             -200               0             -200               0
2.01316                -2.049973       -42.41305        -38.63839        7.069781             -200               0             -200               0
2.01974                -2.118611       -42.91317         -38.3804        2.686734             -200               0             -200               0
2.02632                -2.189865         -43.421        -38.12558       -1.747557             -200               0             -200               0
2.03289                -2.263858       -43.93673         -37.8743       -6.231385             -200               0             -200               0
2.03947                -2.340729        -44.4605        -37.62689       -10.76297             -200               0             -200               0
2.04605                -2.420621       -44.99248        -37.38365        -15.3405             -200               0             -200               0
2.05263                -2.503696       -45.53281        -37.14485       -19.96212             -200               0             -200               0
2.05921                -2.590122       -46.08162        -36.91073       -24.62598             -200               0             -200               0
2.06579                -2.680085         -46.639         -36.6815       -29.33022             -200               0             -200               0
2.07237                -2.773782       -47.20503        -36.45735       -34.07302             -200               0             -200               0
2.07895                -2.871428       -47.77975        -36.23845       -38.85258             -200               0             -200               0
2.08553                -2.973251       -48.36316        -36.02493       -43.66713             -200               0             -200               0
2.09211                -3.079496        -48.9552        -35.81693       -48.51497             -200               0             -200               0
2.09868                -3.190425       -49.55574        -35.61455        -53.3944             -200               0             -200               0
2.10526                -3.306317       -50.16463        -35.41789       -58.30382             -200               0             -200               0
2.11184                -3.427469       -50.78156        -35.22702       -63.24164             -200               0             -200               0
2.11842                  -3.5542       -51.40622        -35.04202       -68.20636             -200               0             -200               0
2.125                  -3.686846       -52.03815        -34.86294        -73.1965             -200               0             -200               0
2.13158                -3.825764        -52.6768        -34.68984       -78.21065             -200               0             -200               0
2.13816                -3.971336        -53.3215        -34.52275       -83.24745             -200               0             -200               0
2.14474                -4.123962       -53.97145        -34.36169       -88.30559             -200               0             -200               0
2.15132                -4.284072       -54.62569        -34.20672       -93.38381             -200               0             -200               0
2.15789                -4.452119       -55.28314        -34.05783       -98.48088             -200               0             -200               0
2.16447                -4.628584       -55.94249        -33.91505       -103.5957             -200               0             -200               0
2.17105                 -4.81398       -56.60228        -33.77838        -108.727             -200               0             -200               0
2.17763                 -5.00885        -57.2608        -33.64785       -113.8738             -200               0             -200               0
2.18421                -5.213773       -57.91612        -33.52345        -119.035             -200               0             -200               0
2.19079                 -5.42937       -58.56601        -33.40518       -124.2097             -200               0             -200               0
2.19737                -5.656299       -59.20796        -33.29306       -129.3968             -200               0             -200               0
2.20395                -5.895271       -59.83909        -33.18707       -134.5954             -200               0             -200               0
2.21053                -6.147044        -60.4561        -33.08721       -139.8046             -200               0             -200               0
2.21711                -6.412438       -61.05525        -32.99349       -145.0235             -200               0             -200               0
2.22368                -6.692337       -61.63224         -32.9059       -150.2513             -200               0             -200               0
2.23026                -6.987697       -62.18212        -32.82443        -155.487             -200               0             -200               0
2.23684                -7.299558        -62.6992        -32.74908         -160.73             -200               0             -200               0
2.24342                -7.629047       -63.17687        -32.67985       -165.9793             -200               0             -200               0
2.25                   -7.977399       -63.60742        -32.61673       -171.2342             -200               0             -200               0
2.25658                -8.345956       -63.98186        -32.55971        -176.494             -200               0             -200               0
2.26316                -8.736189       -64.28949        -32.50881        178.2421             -200               0             -200               0
2.26974                -9.149705       -64.51768          -32.464        172.9749             -200               0             -200               0
2.27632                -9.588256       -64.65127        -32.42529         167.705             -200               0             -200               0
2.28289                -10.05374       -64.67195        -32.39267        162.4333             -200               0             -200               0
2.28947                -10.54821       -64.55745        -32.36615        157.1603             -200               0             -200               0