! TOUCHSTONE file generated by CST MICROWAVE STUDIO
! Date and time: Tue Mar 18 20:31:53 2025
! Project name: hairline.cst
! Parameters = {B=12.5; D=160; F=15; Feed=2.85625; Fracture=0.5; L=100; M=50; R=0.384908; S=1.5; Theta=270; length=57.125; wave=114.25}
! Header version: 2024
! Port assignment regex: !\s*Touchstone port\s*([0-9]+)\s*=\s*(CST MWS port|CST DES external port|CST DES block port)\s*(.+)\s* \(\"(.*)\"\)(\s*mode\s*([0-9]+))?.*
! Touchstone port assignment:
! Touchstone port 1 = CST MWS port 1 ("")
! Touchstone port 2 = CST MWS port 2 ("")
# GHz S DB R 50
1                    -0.02018292       -9.757805        -68.45302        161.3363             -200               0             -200               0
1.00658              -0.02096766       -9.845235        -68.39013        155.8474             -200               0             -200               0
1.01316              -0.02177218       -9.933141        -68.35723        150.4535             -200               0             -200               0
1.01974              -0.02259436       -10.02153        -68.35453        145.1625             -200               0             -200               0
1.02632              -0.02343026       -10.11043        -68.38236        139.9844             -200               0             -200               0
1.03289              -0.02428029       -10.19983        -68.44114        134.9311             -200               0             -200               0
1.03947              -0.02514075       -10.28978        -68.53139         130.017             -200               0             -200               0
1.04605              -0.02601236       -10.38029        -68.65365        125.2597             -200               0             -200               0
1.05263              -0.02689292       -10.47138        -68.80844        120.6804             -200               0             -200               0
1.05921              -0.02778347       -10.56309        -68.99621        116.3047             -200               0             -200               0
1.06579              -0.02868119       -10.65543        -69.21716        112.1635             -200               0             -200               0
1.07237              -0.02958957       -10.74845        -69.47109        108.2943             -200               0             -200               0
1.07895              -0.03050788       -10.84215        -69.75711        104.7418             -200               0             -200               0
1.08553              -0.03143852       -10.93658         -70.0732        101.5595             -200               0             -200               0
1.09211              -0.03238391       -11.03177        -70.41562        98.80982             -200               0             -200               0
1.09868               -0.0333443       -11.12772        -70.77805          96.564             -200               0             -200               0
1.10526              -0.03432432       -11.22448        -71.15047        94.89906             -200               0             -200               0
1.11184                -0.035327       -11.32206        -71.51786        93.89096             -200               0             -200               0
1.11842              -0.03635599       -11.42048        -71.85896        93.60118             -200               0             -200               0
1.125                -0.03741388       -11.51975        -72.14587        94.05518             -200               0             -200               0
1.13158              -0.03850452       -11.61988        -72.34558        95.21426             -200               0             -200               0
1.13816               -0.0396312        -11.7209        -72.42446        96.94996             -200               0             -200               0
1.14474                -0.040799       -11.82279        -72.35581        99.03765             -200               0             -200               0
1.15132               -0.0420104       -11.92557        -72.12772        101.1845             -200               0             -200               0
1.15789              -0.04327003       -12.02923        -71.74713        103.0891             -200               0             -200               0
1.16447              -0.04457846       -12.13378        -71.23734        104.5049             -200               0             -200               0
1.17105              -0.04593945       -12.23921        -70.63077         105.278             -200               0             -200               0
1.17763              -0.04735466       -12.34551        -69.96094        105.3485             -200               0             -200               0
1.18421              -0.04882583       -12.45268        -69.25711        104.7287             -200               0             -200               0
1.19079              -0.05035314       -12.56071        -68.54206        103.4734             -200               0             -200               0
1.19737              -0.05193945        -12.6696         -67.8321        101.6571             -200               0             -200               0
1.20395              -0.05358261       -12.77933        -67.13817        99.35817             -200               0             -200               0
1.21053              -0.05528275       -12.88992        -66.46716        96.65066             -200               0             -200               0
1.21711              -0.05703819       -13.00135        -65.82312        93.60044             -200               0             -200               0
1.22368              -0.05885003       -13.11363        -65.20816         90.2644             -200               0             -200               0
1.23026              -0.06071311       -13.22676        -64.62308        86.69078             -200               0             -200               0
1.23684              -0.06262752       -13.34076        -64.06791        82.92022             -200               0             -200               0
1.24342              -0.06459231       -13.45563        -63.54214        78.98683             -200               0             -200               0
1.25                 -0.06660342       -13.57139        -63.04499        74.91931             -200               0             -200               0
1.25658              -0.06865833       -13.68807        -62.57551        70.74187             -200               0             -200               0
1.26316              -0.07075754       -13.80569        -62.13268        66.47513             -200               0             -200               0
1.26974              -0.07289712       -13.92428        -61.71545        62.13674             -200               0             -200               0
1.27632              -0.07507752       -14.04388        -61.32281        57.74194             -200               0             -200               0
1.28289              -0.07729611       -14.16452        -60.95375        53.30406             -200               0             -200               0
1.28947              -0.07955425       -14.28624        -60.60733        48.83484             -200               0             -200               0
1.29605              -0.08185201       -14.40909        -60.28265        44.34479             -200               0             -200               0
1.30263              -0.08419038       -14.53312        -59.97883        39.84339             -200               0             -200               0
1.30921              -0.08657154       -14.65837        -59.69508        35.33931             -200               0             -200               0
1.31579              -0.08899667       -14.78489        -59.43059        30.84061             -200               0             -200               0
1.32237              -0.09147062       -14.91273        -59.18463        26.35482             -200               0             -200               0
1.32895              -0.09399662       -15.04193        -58.95645         21.8891             -200               0             -200               0
1.33553              -0.09657888       -15.17255        -58.74534        17.45032             -200               0             -200               0
1.34211              -0.09922532       -15.30461        -58.55059        13.04514             -200               0             -200               0
1.34868               -0.1019384       -15.43817        -58.37148        8.680066             -200               0             -200               0
1.35526               -0.1047274       -15.57326        -58.20726        4.361505             -200               0             -200               0
1.36184               -0.1075982        -15.7099        -58.05717       0.0957828             -200               0             -200               0
1.36842               -0.1105584       -15.84813        -57.92041       -4.110822             -200               0             -200               0
1.375                 -0.1136152       -15.98798        -57.79611       -8.252091             -200               0             -200               0
1.38158               -0.1167752       -16.12946        -57.68334       -12.32187             -200               0             -200               0
1.38816               -0.1200481       -16.27258        -57.58111       -16.31413             -200               0             -200               0
1.39474               -0.1234389       -16.41736         -57.4883       -20.22299             -200               0             -200               0
1.40132               -0.1269546        -16.5638         -57.4037       -24.04284             -200               0             -200               0
1.40789               -0.1306028       -16.71191        -57.32599       -27.76843             -200               0             -200               0
1.41447               -0.1343895       -16.86169        -57.25371       -31.39501             -200               0             -200               0
1.42105               -0.1383197       -17.01312        -57.18525       -34.91855             -200               0             -200               0
1.42763               -0.1423992       -17.16622        -57.11888        -38.3359             -200               0             -200               0
1.43421               -0.1466315       -17.32097        -57.05274       -41.64503             -200               0             -200               0
1.44079               -0.1510189       -17.47739        -56.98484        -44.8453             -200               0             -200               0
1.44737               -0.1555676       -17.63545         -56.9131       -47.93773             -200               0             -200               0
1.45395               -0.1602765       -17.79516        -56.83537       -50.92519             -200               0             -200               0
1.46053               -0.1651494       -17.95652        -56.74952       -53.81266             -200               0             -200               0
1.46711               -0.1701876       -18.11954        -56.65345       -56.60734             -200               0             -200               0
1.47368                 -0.17539       -18.28423        -56.54518       -59.31874             -200               0             -200               0
1.48026               -0.1807588       -18.45061        -56.42293       -61.95856             -200               0             -200               0
1.48684               -0.1862944        -18.6187        -56.28519       -64.54052             -200               0             -200               0
1.49342               -0.1919964       -18.78851        -56.13079       -67.08004             -200               0             -200               0
1.5                    -0.197865       -18.96009        -55.95896        -69.5937             -200               0             -200               0
1.50658               -0.2039018       -19.13347        -55.76937       -72.09875             -200               0             -200               0
1.51316               -0.2101066       -19.30869        -55.56211       -74.61246             -200               0             -200               0
1.51974               -0.2164829       -19.48581        -55.33775       -77.15147             -200               0             -200               0
1.52632               -0.2230296       -19.66488        -55.09721       -79.73127             -200               0             -200               0
1.53289               -0.2297528       -19.84595        -54.84178       -82.36571             -200               0             -200               0
1.53947               -0.2366537        -20.0291        -54.57303       -85.06662             -200               0             -200               0
1.54605               -0.2437391       -20.21438        -54.29269       -87.84362             -200               0             -200               0
1.55263                -0.251014       -20.40186        -54.00265       -90.70405             -200               0             -200               0
1.55921               -0.2584848       -20.59162        -53.70484       -93.65302             -200               0             -200               0
1.56579               -0.2661593       -20.78371        -53.40114       -96.69351             -200               0             -200               0
1.57237               -0.2740488       -20.97821        -53.09343       -99.82662             -200               0             -200               0
1.57895               -0.2821597       -21.17518        -52.78342       -103.0518             -200               0             -200               0
1.58553               -0.2905047       -21.37469        -52.47273       -106.3671             -200               0             -200               0
1.59211               -0.2990954       -21.57679        -52.16284       -109.7695             -200               0             -200               0
1.59868               -0.3079437       -21.78154        -51.85504        -113.255             -200               0             -200               0
1.60526               -0.3170637         -21.989        -51.55051       -116.8189             -200               0             -200               0
1.61184                -0.326469       -22.19921        -51.25023       -120.4562             -200               0             -200               0
1.61842               -0.3361722        -22.4122        -50.95509       -124.1613             -200               0             -200               0
1.625                 -0.3461891       -22.62802         -50.6658       -127.9287             -200               0             -200               0
1.63158                -0.356533       -22.84669        -50.38297       -131.7525             -200               0             -200               0
1.63816               -0.3672178       -23.06825        -50.10711        -135.627             -200               0             -200               0
1.64474               -0.3782581        -23.2927         -49.8386       -139.5465             -200               0             -200               0
1.65132               -0.3896663       -23.52007        -49.57775       -143.5053             -200               0             -200               0
1.65789               -0.4014561       -23.75038        -49.32477       -147.4978             -200               0             -200               0
1.66447               -0.4136396       -23.98362        -49.07981       -151.5187             -200               0             -200               0
1.67105               -0.4262294       -24.21982        -48.84295       -155.5627             -200               0             -200               0
1.67763               -0.4392354       -24.45899        -48.61421       -159.6246             -200               0             -200               0
1.68421               -0.4526692       -24.70114        -48.39354       -163.6996             -200               0             -200               0
1.69079               -0.4665394       -24.94629        -48.18084       -167.7827             -200               0             -200               0
1.69737               -0.4808558       -25.19446        -47.97598       -171.8695             -200               0             -200               0
1.70395               -0.4956264       -25.44566        -47.77877       -175.9553             -200               0             -200               0
1.71053                -0.510859       -25.69995        -47.58895        179.9642             -200               0             -200               0
1.71711               -0.5265646       -25.95735        -47.40626        175.8931             -200               0             -200               0
1.72368               -0.5427473       -26.21792        -47.23035        171.8354             -200               0             -200               0
1.73026                -0.559418       -26.48171        -47.06086         167.795             -200               0             -200               0
1.73684               -0.5765842       -26.74878        -46.89737        163.7756             -200               0             -200               0
1.74342               -0.5942551       -27.01923         -46.7394        159.7804             -200               0             -200               0
1.75                  -0.6124405       -27.29313        -46.58645        155.8129             -200               0             -200               0
1.75658               -0.6311512       -27.57058        -46.43796        151.8758             -200               0             -200               0
1.76316               -0.6503993       -27.85168        -46.29331        147.9719             -200               0             -200               0
1.76974               -0.6702005       -28.13656        -46.15186        144.1035             -200               0             -200               0
1.77632                -0.690569       -28.42534        -46.01291        140.2726             -200               0             -200               0
1.78289               -0.7115233       -28.71814        -45.87572        136.4807             -200               0             -200               0
1.78947               -0.7330825        -29.0151        -45.73952         132.729             -200               0             -200               0
1.79605               -0.7552689       -29.31637        -45.60349        129.0179             -200               0             -200               0
1.80263               -0.7781078       -29.62209        -45.46682        125.3476             -200               0             -200               0
1.80921               -0.8016264        -29.9324        -45.32865        121.7175             -200               0             -200               0
1.81579               -0.8258535       -30.24744        -45.18812        118.1263             -200               0             -200               0
1.82237               -0.8508209       -30.56737        -45.04439        114.5721             -200               0             -200               0
1.82895                -0.876565       -30.89232        -44.89664        111.0523             -200               0             -200               0
1.83553                -0.903122       -31.22243        -44.74408        107.5637             -200               0             -200               0
1.84211               -0.9305307       -31.55783        -44.58598        104.1023             -200               0             -200               0
1.84868               -0.9588343       -31.89864        -44.42167        100.6635             -200               0             -200               0
1.85526               -0.9880765       -32.24498        -44.25056        97.24206             -200               0             -200               0
1.86184                -1.018301       -32.59696        -44.07218        93.83239             -200               0             -200               0
1.86842                -1.049558       -32.95467        -43.88615        90.42838             -200               0             -200               0
1.875                  -1.081897        -33.3182        -43.69223        87.02367             -200               0             -200               0
1.88158                -1.115365       -33.68765        -43.49028        83.61171             -200               0             -200               0
1.88816                -1.150017       -34.06308        -43.28031        80.18596             -200               0             -200               0
1.89474                -1.185905       -34.44456        -43.06244        76.73994             -200               0             -200               0
1.90132                -1.223083       -34.83215        -42.83694        73.26743             -200               0             -200               0
1.90789                -1.261607        -35.2259        -42.60415        69.76254             -200               0             -200               0
1.91447                -1.301531       -35.62587        -42.36454        66.21983             -200               0             -200               0
1.92105                -1.342913       -36.03211        -42.11865        62.63435             -200               0             -200               0
1.92763                -1.385812       -36.44468         -41.8671        59.00178             -200               0             -200               0
1.93421                -1.430285       -36.86361        -41.61056        55.31837             -200               0             -200               0
1.94079                -1.476395       -37.28898        -41.34975        51.58104             -200               0             -200               0
1.94737                -1.524203       -37.72084        -41.08538         47.7873             -200               0             -200               0
1.95395                -1.573773       -38.15926        -40.81821        43.93532             -200               0             -200               0
1.96053                -1.625172       -38.60432        -40.54897         40.0238             -200               0             -200               0
1.96711                -1.678472       -39.05611        -40.27838        36.05203             -200               0             -200               0
1.97368                -1.733742       -39.51472        -40.00713        32.01973             -200               0             -200               0
1.98026                -1.791063       -39.98028        -39.73591        27.92711             -200               0             -200               0
1.98684                -1.850515        -40.4529        -39.46534        23.77472             -200               0             -200               0
1.99342                -1.912186        -40.9327        -39.19601        19.56345             -200               0             -200               0
2                      -1.976169       -41.41985        -38.92849        15.29448             -200               0             -200               0
2.00658                -2.042565        -41.9145        -38.66327        10.96919             -200               0             -200               0
2.01316                -2.111484        -42.4168        -38.40083        6.589155             -200               0             -200               0
2.01974                 -2.18304       -42.92692         -38.1416        2.156092             -200               0             -200               0
2.02632                -2.257362       -43.44504        -37.88597       -2.328186             -200               0             -200               0
2.03289                -2.334584       -43.97132        -37.63427        -6.86179             -200               0             -200               0
2.03947                -2.414856       -44.50592        -37.38683       -11.44278             -200               0             -200               0
2.04605                -2.498337         -45.049        -37.14392        -16.0692             -200               0             -200               0
2.05263                -2.585199       -45.60069        -36.90579       -20.73909             -200               0             -200               0
2.05921                -2.675629       -46.16111        -36.67266       -25.45049             -200               0             -200               0
2.06579                -2.769827       -46.73034        -36.44473       -30.20149             -200               0             -200               0
2.07237                -2.868008       -47.30843        -36.22215       -34.99018             -200               0             -200               0
2.07895                -2.970404       -47.89538        -36.00507       -39.81472             -200               0             -200               0
2.08553                -3.077264       -48.49117        -35.79363       -44.67331             -200               0             -200               0
2.09211                -3.188852       -49.09567        -35.58793        -49.5642             -200               0             -200               0
2.09868                -3.305453       -49.70874        -35.38806        -54.4857             -200               0             -200               0
2.10526                -3.427369       -50.33011         -35.1941       -59.43618             -200               0             -200               0
2.11184                -3.554921       -50.95946        -35.00613       -64.41405             -200               0             -200               0
2.11842                -3.688452       -51.59635        -34.82418       -69.41779             -200               0             -200               0
2.125                   -3.82833       -52.24026        -34.64833       -74.44595             -200               0             -200               0
2.13158                -3.974939       -52.89053        -34.47858       -79.49712             -200               0             -200               0
2.13816                -4.128691       -53.54637        -34.31499       -84.56994             -200               0             -200               0
2.14474                -4.290025       -54.20686        -34.15757       -89.66312             -200               0             -200               0
2.15132                -4.459404       -54.87089        -34.00634       -94.77542             -200               0             -200               0
2.15789                 -4.63732        -55.5372        -33.86131       -99.90562             -200               0             -200               0
2.16447                -4.824301       -56.20433         -33.7225       -105.0526             -200               0             -200               0
2.17105                -5.020905       -56.87058         -33.5899       -110.2152             -200               0             -200               0
2.17763                -5.227728       -57.53403        -33.46353       -115.3923             -200               0             -200               0
2.18421                -5.445407       -58.19246        -33.34337       -120.5831             -200               0             -200               0
2.19079                -5.674625       -58.84333        -33.22944       -125.7863             -200               0             -200               0
2.19737                -5.916113       -59.48378        -33.12172       -131.0012             -200               0             -200               0
2.20395                -6.170661       -60.11049        -33.02021       -136.2267             -200               0             -200               0
2.21053                -6.439119        -60.7197        -32.92491        -141.462             -200               0             -200               0
2.21711                -6.722404       -61.30708        -32.83581       -146.7062             -200               0             -200               0
2.22368                -7.021515       -61.86763         -32.7529       -151.9585             -200               0             -200               0
2.23026                -7.337538       -62.39558        -32.67618       -157.2179             -200               0             -200               0
2.23684                -7.671657       -62.88423        -32.60565       -162.4838             -200               0             -200               0
2.24342                -8.025168       -63.32575        -32.54129       -167.7553             -200               0             -200               0
2.25                   -8.399489       -63.71094         -32.4831       -173.0317             -200               0             -200               0
2.25658                -8.796179        -64.0289        -32.43107       -178.3122             -200               0             -200               0
2.26316                -9.216947       -64.26663         -32.3852        176.4039             -200               0             -200               0
2.26974                -9.663669       -64.40851        -32.34548        171.1174             -200               0             -200               0
2.27632                -10.13839       -64.43561        -32.31192         165.829             -200               0             -200               0
2.28289                -10.64332       -64.32477        -32.28451        160.5393             -200               0             -200               0
2.28947                -11.18083        -64.0474        -32.26324        155.2492             -200               0             -200               0