! TOUCHSTONE file generated by CST MICROWAVE STUDIO
! Date and time: Tue Mar 18 20:31:49 2025
! Project name: hairline.cst
! Parameters = {B=12.5; D=160; F=25; Feed=2.85625; Fracture=1; L=100; M=30; R=0.384908; S=1.5; Theta=180; length=57.125; wave=114.25}
! Header version: 2024
! Port assignment regex: !\s*Touchstone port\s*([0-9]+)\s*=\s*(CST MWS port|CST DES external port|CST DES block port)\s*(.+)\s* \(\"(.*)\"\)(\s*mode\s*([0-9]+))?.*
! Touchstone port assignment:
! Touchstone port 1 = CST MWS port 1 ("")
! Touchstone port 2 = CST MWS port 2 ("")
# GHz S DB R 50
1                    -0.02109565       -9.723156        -66.35189        162.8383             -200               0             -200               0
1.00658              -0.02167513       -9.808403        -66.39097        157.1622             -200               0             -200               0
1.01316              -0.02222845       -9.894323         -66.4637        151.6064             -200               0             -200               0
1.01974              -0.02275778       -9.980976        -66.57117        146.1826             -200               0             -200               0
1.02632              -0.02326891       -10.06842        -66.71464        140.9059             -200               0             -200               0
1.03289              -0.02376579        -10.1567        -66.89552        135.7949             -200               0             -200               0
1.03947              -0.02425754       -10.24588        -67.11541        130.8733             -200               0             -200               0
1.04605              -0.02474935       -10.33598        -67.37595        126.1708             -200               0             -200               0
1.05263               -0.0252518       -10.42704         -67.6788        121.7249             -200               0             -200               0
1.05921              -0.02577204       -10.51908         -68.0254        117.5827             -200               0             -200               0
1.06579              -0.02632005       -10.61212        -68.41666        113.8042             -200               0             -200               0
1.07237              -0.02690448       -10.70617         -68.8524        110.4649             -200               0             -200               0
1.07895              -0.02753631       -10.80122        -69.33041        107.6595             -200               0             -200               0
1.08553              -0.02822116       -10.89725        -69.84492        105.5046             -200               0             -200               0
1.09211              -0.02897049       -10.99425        -70.38427        104.1383             -200               0             -200               0
1.09868              -0.02978933       -11.09219         -70.9275        103.7121             -200               0             -200               0
1.10526              -0.03068546       -11.19104        -71.44041        104.3658             -200               0             -200               0
1.11184               -0.0316643       -11.29075        -71.87273        106.1763             -200               0             -200               0
1.11842               -0.0327283       -11.39129        -72.16076        109.0776             -200               0             -200               0
1.125                -0.03388155       -11.49259        -72.24053        112.7845             -200               0             -200               0
1.13158              -0.03512508       -11.59462        -72.07091        116.7933             -200               0             -200               0
1.13816              -0.03645845       -11.69733        -71.65315        120.5089             -200               0             -200               0
1.14474              -0.03788003       -11.80067        -71.03019         123.438             -200               0             -200               0
1.15132              -0.03938712       -11.90459        -70.26639        125.3097             -200               0             -200               0
1.15789              -0.04097486       -12.00906        -69.42472         126.069             -200               0             -200               0
1.16447               -0.0426381       -12.11406        -68.55431        125.7988             -200               0             -200               0
1.17105              -0.04437144       -12.21954        -67.68831        124.6415             -200               0             -200               0
1.17763              -0.04616573       -12.32551        -66.84683        122.7489             -200               0             -200               0
1.18421               -0.0480154       -12.43195         -66.0409        120.2589             -200               0             -200               0
1.19079              -0.04991057       -12.53886        -65.27581         117.288             -200               0             -200               0
1.19737              -0.05184356       -12.64626        -64.55339        113.9307             -200               0             -200               0
1.20395              -0.05380677       -12.75418         -63.8735        110.2631             -200               0             -200               0
1.21053              -0.05579284       -12.86264        -63.23492        106.3458             -200               0             -200               0
1.21711              -0.05779343        -12.9717        -62.63593        102.2271             -200               0             -200               0
1.22368              -0.05980418        -13.0814        -62.07457        97.94615             -200               0             -200               0
1.23026              -0.06181913       -13.19181        -61.54888        93.53435             -200               0             -200               0
1.23684              -0.06383491       -13.30299        -61.05695        89.01759             -200               0             -200               0
1.24342              -0.06584823       -13.41501        -60.59698        84.41723             -200               0             -200               0
1.25                 -0.06785948       -13.52795        -60.16734        79.75118             -200               0             -200               0
1.25658              -0.06986929       -13.64188        -59.76651        75.03461             -200               0             -200               0
1.26316               -0.0718798       -13.75689        -59.39313        70.28058             -200               0             -200               0
1.26974              -0.07389434       -13.87305        -59.04595        65.50048             -200               0             -200               0
1.27632              -0.07591994       -13.99043        -58.72386         60.7044             -200               0             -200               0
1.28289              -0.07796165       -14.10909        -58.42585        55.90144             -200               0             -200               0
1.28947              -0.08002983       -14.22911        -58.15102        51.09991             -200               0             -200               0
1.29605              -0.08213223       -14.35053        -57.89852        46.30756             -200               0             -200               0
1.30263              -0.08428043       -14.47341        -57.66761        41.53174             -200               0             -200               0
1.30921              -0.08648416       -14.59777        -57.45758         36.7795             -200               0             -200               0
1.31579               -0.0887558       -14.72364         -57.2678        32.05778             -200               0             -200               0
1.32237              -0.09110556       -14.85103        -57.09764        27.37342             -200               0             -200               0
1.32895               -0.0935465       -14.97995        -56.94653        22.73333             -200               0             -200               0
1.33553              -0.09608798        -15.1104        -56.81388        18.14452             -200               0             -200               0
1.34211              -0.09874145       -15.24236        -56.69911        13.61422             -200               0             -200               0
1.34868               -0.1015154        -15.3758        -56.60163        9.149886             -200               0             -200               0
1.35526               -0.1044188        -15.5107        -56.52081          4.7593             -200               0             -200               0
1.36184               -0.1074583         -15.647        -56.45594       0.4505837             -200               0             -200               0
1.36842               -0.1106393       -15.78469        -56.40627       -3.767758             -200               0             -200               0
1.375                  -0.113966        -15.9237        -56.37092       -7.886843             -200               0             -200               0
1.38158               -0.1174399       -16.06399        -56.34888       -11.89742             -200               0             -200               0
1.38816               -0.1210616       -16.20552        -56.33898       -15.78995             -200               0             -200               0
1.39474               -0.1248298       -16.34824        -56.33985       -19.55468             -200               0             -200               0
1.40132               -0.1287429       -16.49212        -56.34989       -23.18182             -200               0             -200               0
1.40789               -0.1327954       -16.63712        -56.36721       -26.66179             -200               0             -200               0
1.41447               -0.1369822       -16.78323        -56.38962       -29.98554             -200               0             -200               0
1.42105                -0.141296       -16.93043        -56.41458       -33.14499             -200               0             -200               0
1.42763               -0.1457309       -17.07872         -56.4392        -36.1336             -200               0             -200               0
1.43421               -0.1502768       -17.22812        -56.46023       -38.94701             -200               0             -200               0
1.44079               -0.1549277       -17.37863        -56.47408        -41.5838             -200               0             -200               0
1.44737               -0.1596735        -17.5303        -56.47689       -44.04633             -200               0             -200               0
1.45395               -0.1645064       -17.68319        -56.46465       -46.34143             -200               0             -200               0
1.46053               -0.1694201       -17.83735        -56.43335        -48.4811             -200               0             -200               0
1.46711               -0.1744081       -17.99285        -56.37913       -50.48283             -200               0             -200               0
1.47368               -0.1794651       -18.14978        -56.29859       -52.36956             -200               0             -200               0
1.48026               -0.1845872       -18.30825        -56.18894       -54.16913             -200               0             -200               0
1.48684               -0.1897733       -18.46834        -56.04826       -55.91321             -200               0             -200               0
1.49342               -0.1950241       -18.63018        -55.87564       -57.63578             -200               0             -200               0
1.5                   -0.2003414       -18.79388        -55.67125       -59.37129             -200               0             -200               0
1.50658               -0.2057294       -18.95954        -55.43629       -61.15276             -200               0             -200               0
1.51316               -0.2111949        -19.1273        -55.17293       -63.01009             -200               0             -200               0
1.51974               -0.2167482       -19.29726        -54.88407       -64.96873             -200               0             -200               0
1.52632                -0.222399       -19.46953        -54.57316       -67.04886             -200               0             -200               0
1.53289               -0.2281607       -19.64422        -54.24394       -69.26511             -200               0             -200               0
1.53947               -0.2340482       -19.82142        -53.90021       -71.62669             -200               0             -200               0
1.54605                -0.240078       -20.00122         -53.5457       -74.13796             -200               0             -200               0
1.55263               -0.2462672       -20.18368        -53.18389       -76.79906             -200               0             -200               0
1.55921               -0.2526349       -20.36887        -52.81796        -79.6068             -200               0             -200               0
1.56579               -0.2591995       -20.55684        -52.45072       -82.55535             -200               0             -200               0
1.57237               -0.2659815       -20.74761         -52.0846       -85.63704             -200               0             -200               0
1.57895               -0.2729983        -20.9412        -51.72166       -88.84293             -200               0             -200               0
1.58553               -0.2802702       -21.13762        -51.36363       -92.16334             -200               0             -200               0
1.59211               -0.2878143       -21.33686         -51.0119        -95.5882             -200               0             -200               0
1.59868               -0.2956469        -21.5389        -50.66759       -99.10737             -200               0             -200               0
1.60526               -0.3037838       -21.74371        -50.33158       -102.7109             -200               0             -200               0
1.61184               -0.3122377       -21.95126        -50.00453        -106.389             -200               0             -200               0
1.61842               -0.3210203        -22.1615        -49.68692       -110.1323             -200               0             -200               0
1.625                 -0.3301406       -22.37438        -49.37907        -113.932             -200               0             -200               0
1.63158                -0.339604       -22.58987        -49.08118       -117.7795             -200               0             -200               0
1.63816               -0.3494185       -22.80791        -48.79331       -121.6668             -200               0             -200               0
1.64474               -0.3595826       -23.02847        -48.51545       -125.5864             -200               0             -200               0
1.65132               -0.3700994       -23.25152         -48.2475        -129.531             -200               0             -200               0
1.65789               -0.3809659       -23.47704        -47.98926       -133.4939             -200               0             -200               0
1.66447               -0.3921781       -23.70503         -47.7405       -137.4689             -200               0             -200               0
1.67105               -0.4037329       -23.93549         -47.5009       -141.4498             -200               0             -200               0
1.67763               -0.4156215       -24.16845        -47.27011       -145.4311             -200               0             -200               0
1.68421               -0.4278395       -24.40396         -47.0477       -149.4076             -200               0             -200               0
1.69079               -0.4403773        -24.6421        -46.83321       -153.3742             -200               0             -200               0
1.69737               -0.4532308       -24.88294        -46.62613       -157.3264             -200               0             -200               0
1.70395               -0.4663927       -25.12661         -46.4259       -161.2599             -200               0             -200               0
1.71053               -0.4798586       -25.37323        -46.23191       -165.1709             -200               0             -200               0
1.71711               -0.4936255       -25.62296         -46.0435       -169.0557             -200               0             -200               0
1.72368                -0.507693       -25.87598        -45.85999       -172.9114             -200               0             -200               0
1.73026               -0.5220622       -26.13247        -45.68063       -176.7351             -200               0             -200               0
1.73684                -0.536738       -26.39265        -45.50464        179.4753             -200               0             -200               0
1.74342               -0.5517295       -26.65675        -45.33122        175.7216             -200               0             -200               0
1.75                  -0.5670489         -26.925        -45.15951        172.0051             -200               0             -200               0
1.75658                -0.582713       -27.19763        -44.98865        168.3262             -200               0             -200               0
1.76316               -0.5987419        -27.4749        -44.81776        164.6852             -200               0             -200               0
1.76974               -0.6151597       -27.75706        -44.64595        161.0812             -200               0             -200               0
1.77632                -0.631996       -28.04435        -44.47232        157.5129             -200               0             -200               0
1.78289               -0.6492825       -28.33702        -44.29602        153.9784             -200               0             -200               0
1.78947               -0.6670582       -28.63529        -44.11621        150.4749             -200               0             -200               0
1.79605                -0.685363       -28.93939        -43.93211        146.9988             -200               0             -200               0
1.80263               -0.7042408       -29.24953        -43.74298        143.5463             -200               0             -200               0
1.80921               -0.7237395        -29.5659         -43.5482        140.1125             -200               0             -200               0
1.81579               -0.7439085       -29.88867        -43.34721        136.6921             -200               0             -200               0
1.82237               -0.7648011         -30.218        -43.13957        133.2796             -200               0             -200               0
1.82895               -0.7864707       -30.55402        -42.92495        129.8689             -200               0             -200               0
1.83553               -0.8089725       -30.89685        -42.70315        126.4538             -200               0             -200               0
1.84211               -0.8323627       -31.24658        -42.47408        123.0279             -200               0             -200               0
1.84868               -0.8566984       -31.60331        -42.23781        119.5849             -200               0             -200               0
1.85526               -0.8820366       -31.96708        -41.99449        116.1186             -200               0             -200               0
1.86184               -0.9084332       -32.33796        -41.74441        112.6234             -200               0             -200               0
1.86842               -0.9359431       -32.71598        -41.48795        109.0935             -200               0             -200               0
1.875                 -0.9646232       -33.10116        -41.22561        105.5242             -200               0             -200               0
1.88158                -0.994526       -33.49355        -40.95793        101.9109             -200               0             -200               0
1.88816                -1.025705       -33.89315        -40.68552        98.24981             -200               0             -200               0
1.89474                -1.058213       -34.30001        -40.40905        94.53758             -200               0             -200               0
1.90132                -1.092102       -34.71416        -40.12921        90.77161             -200               0             -200               0
1.90789                -1.127422       -35.13565        -39.84671        86.94985             -200               0             -200               0
1.91447                -1.164225       -35.56452        -39.56225        83.07085             -200               0             -200               0
1.92105                -1.202563       -36.00088        -39.27653        79.13368             -200               0             -200               0
1.92763                -1.242489       -36.44481        -38.99023        75.13791             -200               0             -200               0
1.93421                 -1.28406       -36.89644        -38.70402        71.08357             -200               0             -200               0
1.94079                -1.327332       -37.35592        -38.41851        66.97108             -200               0             -200               0
1.94737                -1.372367       -37.82342        -38.13429         62.8012             -200               0             -200               0
1.95395                -1.419233       -38.29915        -37.85191        58.57498             -200               0             -200               0
1.96053                   -1.468       -38.78332        -37.57188        54.29373             -200               0             -200               0
1.96711                 -1.51875       -39.27621        -37.29468        49.95892             -200               0             -200               0
1.97368                -1.571568       -39.77809        -37.02071        45.57222             -200               0             -200               0
1.98026                 -1.62655       -40.28926        -36.75038        41.13538             -200               0             -200               0
1.98684                -1.683802       -40.81003        -36.48403        36.65026             -200               0             -200               0
1.99342                -1.743443       -41.34073        -36.22198        32.11877             -200               0             -200               0
2                      -1.805598       -41.88171        -35.96451        27.54285             -200               0             -200               0
2.00658                -1.870414       -42.43329        -35.71186        22.92446             -200               0             -200               0
2.01316                -1.938044       -42.99579        -35.46426        18.26557             -200               0             -200               0
2.01974                 -2.00866       -43.56955        -35.22189        13.56809             -200               0             -200               0
2.02632                -2.082448       -44.15484        -34.98492        8.833937             -200               0             -200               0
2.03289                -2.159611       -44.75193        -34.75351        4.064987             -200               0             -200               0
2.03947                -2.240368       -45.36104        -34.52776      -0.7369385             -200               0             -200               0
2.04605                -2.324955       -45.98232         -34.3078       -5.570059             -200               0             -200               0
2.05263                -2.413626        -46.6159        -34.09371       -10.43265             -200               0             -200               0
2.05921                -2.506651       -47.26181        -33.88557       -15.32305             -200               0             -200               0
2.06579                -2.604322       -47.92002        -33.68343       -20.23963             -200               0             -200               0
2.07237                -2.706945       -48.59039        -33.48736       -25.18084             -200               0             -200               0
2.07895                -2.814847       -49.27269        -33.29738       -30.14518             -200               0             -200               0
2.08553                -2.928374       -49.96659        -33.11355        -35.1312             -200               0             -200               0
2.09211                -3.047889       -50.67163        -32.93587       -40.13749             -200               0             -200               0
2.09868                -3.173778       -51.38722        -32.76436       -45.16273             -200               0             -200               0
2.10526                -3.306442       -52.11265        -32.59904       -50.20562             -200               0             -200               0
2.11184                -3.446308       -52.84701        -32.43992       -55.26491             -200               0             -200               0
2.11842                 -3.59382        -53.5893        -32.28699        -60.3394             -200               0             -200               0
2.125                  -3.749448       -54.33826        -32.14025       -65.42795             -200               0             -200               0
2.13158                -3.913681       -55.09251         -31.9997       -70.52942             -200               0             -200               0
2.13816                -4.087038        -55.8504        -31.86533       -75.64275             -200               0             -200               0
2.14474                -4.270061       -56.61011        -31.73712        -80.7669             -200               0             -200               0
2.15132                -4.463321       -57.36953        -31.61506       -85.90086             -200               0             -200               0
2.15789                -4.667425       -58.12628        -31.49915       -91.04365             -200               0             -200               0
2.16447                -4.883008       -58.87769        -31.38936       -96.19432             -200               0             -200               0
2.17105                -5.110744       -59.62072        -31.28567        -101.352             -200               0             -200               0
2.17763                -5.351354       -60.35196        -31.18807       -106.5157             -200               0             -200               0
2.18421                  -5.6056       -61.06756        -31.09654       -111.6846             -200               0             -200               0
2.19079                -5.874298       -61.76311        -31.01106       -116.8579             -200               0             -200               0
2.19737                -6.158317       -62.43367        -30.93162       -122.0347             -200               0             -200               0
2.20395                -6.458598       -63.07357        -30.85818       -127.2141             -200               0             -200               0
2.21053                -6.776145       -63.67631        -30.79073       -132.3955             -200               0             -200               0
2.21711                -7.112044       -64.23442        -30.72925        -137.578             -200               0             -200               0
2.22368                -7.467466       -64.73926        -30.67373       -142.7608             -200               0             -200               0
2.23026                -7.843675       -65.18077        -30.62413       -147.9432             -200               0             -200               0
2.23684                -8.242033       -65.54715        -30.58044       -153.1244             -200               0             -200               0
2.24342                -8.664008       -65.82446        -30.54264       -158.3036             -200               0             -200               0
2.25                   -9.111167       -65.99612        -30.51071       -163.4801             -200               0             -200               0
2.25658                -9.585167       -66.04228        -30.48462       -168.6531             -200               0             -200               0
2.26316                -10.08773       -65.93895        -30.46436        -173.822             -200               0             -200               0
2.26974                 -10.6206       -65.65693        -30.44991       -178.9859             -200               0             -200               0
2.27632                -11.18542        -65.1605        -30.44124         175.856             -200               0             -200               0
2.28289                -11.78362       -64.40562        -30.43834        170.7042             -200               0             -200               0
2.28947                -12.41607       -63.33782        -30.44117        165.5597             -200               0             -200               0