! TOUCHSTONE file generated by CST MICROWAVE STUDIO
! Date and time: Tue Mar 18 20:31:56 2025
! Project name: hairline.cst
! Parameters = {B=12.5; D=160; F=25; Feed=2.85625; Fracture=1; L=100; M=30; R=0.384908; S=1.5; Theta=270; length=57.125; wave=114.25}
! Header version: 2024
! Port assignment regex: !\s*Touchstone port\s*([0-9]+)\s*=\s*(CST MWS port|CST DES external port|CST DES block port)\s*(.+)\s* \(\"(.*)\"\)(\s*mode\s*([0-9]+))?.*
! Touchstone port assignment:
! Touchstone port 1 = CST MWS port 1 ("")
! Touchstone port 2 = CST MWS port 2 ("")
# GHz S DB R 50
1                    -0.02123707        -9.74932        -66.24212         162.178             -200               0             -200               0
1.00658              -0.02180825       -9.834801         -66.2879        156.4662             -200               0             -200               0
1.01316              -0.02235263       -9.920975         -66.3678        150.8744             -200               0             -200               0
1.01974              -0.02287129        -10.0079        -66.48302        145.4145             -200               0             -200               0
1.02632              -0.02337157       -10.09564        -66.63494        140.1015             -200               0             -200               0
1.03289              -0.02385735       -10.18423        -66.82515        134.9543             -200               0             -200               0
1.03947              -0.02433822       -10.27374        -67.05539         129.997             -200               0             -200               0
1.04605              -0.02481944       -10.36419        -67.32756        125.2598             -200               0             -200               0
1.05263              -0.02531257       -10.45563        -67.64357        120.7814             -200               0             -200               0
1.05921              -0.02582533       -10.54807        -68.00519        116.6104             -200               0             -200               0
1.06579              -0.02636721       -10.64152        -68.41371        112.8094             -200               0             -200               0
1.07237              -0.02694897         -10.736        -68.86936        109.4577             -200               0             -200               0
1.07895              -0.02757864       -10.83148        -69.37035         106.656             -200               0             -200               0
1.08553              -0.02826644       -10.92797        -69.91118        104.5297             -200               0             -200               0
1.09211              -0.02901982       -11.02543        -70.48002        103.2299             -200               0             -200               0
1.09868               -0.0298465       -11.12384        -71.05491        102.9245             -200               0             -200               0
1.10526              -0.03075279       -11.22315        -71.59892        103.7721             -200               0             -200               0
1.11184               -0.0317452       -11.32333        -72.05673        105.8622             -200               0             -200               0
1.11842              -0.03282477       -11.42432        -72.35735        109.1208             -200               0             -200               0
1.125                -0.03399665       -11.52608        -72.43003        113.2205             -200               0             -200               0
1.13158              -0.03526043       -11.62856        -72.23188        117.5866             -200               0             -200               0
1.13816              -0.03661566        -11.7317        -71.76987        121.5586             -200               0             -200               0
1.14474              -0.03806087       -11.83546        -71.09696        124.6181             -200               0             -200               0
1.15132              -0.03959231        -11.9398        -70.28617        126.5106             -200               0             -200               0
1.15789              -0.04120451       -12.04467        -69.40506        127.2162             -200               0             -200               0
1.16447              -0.04289344       -12.15005        -68.50377        126.8512             -200               0             -200               0
1.17105              -0.04465065       -12.25591        -67.61459        125.5816             -200               0             -200               0
1.17763              -0.04646835       -12.36224        -66.75617        123.5733             -200               0             -200               0
1.18421              -0.04833898       -12.46903        -65.93812        120.9717             -200               0             -200               0
1.19079              -0.05025506       -12.57629        -65.16452        117.8966             -200               0             -200               0
1.19737              -0.05220677       -12.68403        -64.43629        114.4438             -200               0             -200               0
1.20395              -0.05418701       -12.79229        -63.75259        110.6892             -200               0             -200               0
1.21053              -0.05618559        -12.9011        -63.11171        106.6929             -200               0             -200               0
1.21711              -0.05819777        -13.0105        -62.51156        102.5027             -200               0             -200               0
1.22368              -0.06021732       -13.12056        -61.94992        98.15674             -200               0             -200               0
1.23026              -0.06223896       -13.23133        -61.42462         93.6858             -200               0             -200               0
1.23684              -0.06425795       -13.34289        -60.93361        89.11505             -200               0             -200               0
1.24342              -0.06627408       -13.45531          -60.475        84.46526             -200               0             -200               0
1.25                 -0.06828593       -13.56867        -60.04705        79.75384             -200               0             -200               0
1.25658              -0.07029466       -13.68304        -59.64821        74.99551             -200               0             -200               0
1.26316              -0.07230391       -13.79852        -59.27705        70.20295             -200               0             -200               0
1.26974              -0.07431638       -13.91517        -58.93231        65.38726             -200               0             -200               0
1.27632              -0.07634002       -14.03306        -58.61285        60.55825             -200               0             -200               0
1.28289              -0.07838101       -14.15228        -58.31764         55.7248             -200               0             -200               0
1.28947              -0.08044859       -14.27287        -58.04575        50.89507             -200               0             -200               0
1.29605              -0.08255315       -14.39489        -57.79635        46.07665             -200               0             -200               0
1.30263              -0.08470514       -14.51839        -57.56868        41.27679             -200               0             -200               0
1.30921              -0.08691519        -14.6434        -57.36204        36.50247             -200               0             -200               0
1.31579              -0.08919651       -14.76994        -57.17577        31.76057             -200               0             -200               0
1.32237              -0.09155946       -14.89802        -57.00927        27.05792             -200               0             -200               0
1.32895              -0.09401627       -15.02765        -56.86194        22.40143             -200               0             -200               0
1.33553              -0.09657846       -15.15882        -56.73321        17.79816             -200               0             -200               0
1.34211              -0.09925552        -15.2915        -56.62251        13.25538             -200               0             -200               0
1.34868               -0.1020576       -15.42567        -56.52922        8.780653             -200               0             -200               0
1.35526               -0.1049928        -15.5613        -56.45271        4.381864             -200               0             -200               0
1.36184               -0.1080673       -15.69835        -56.39229      0.06728831             -200               0             -200               0
1.36842               -0.1112864       -15.83676        -56.34717       -4.154398             -200               0             -200               0
1.375                 -0.1146545        -15.9765        -56.31647       -8.274109             -200               0             -200               0
1.38158               -0.1181719       -16.11751        -56.29916       -12.28237             -200               0             -200               0
1.38816               -0.1218392       -16.25974        -56.29405       -16.16938             -200               0             -200               0
1.39474               -0.1256546       -16.40316        -56.29971       -19.92512             -200               0             -200               0
1.40132                -0.129616       -16.54773        -56.31449       -23.53954             -200               0             -200               0
1.40789                -0.133717       -16.69341        -56.33645        -27.0028             -200               0             -200               0
1.41447               -0.1379524       -16.84019        -56.36331        -30.3056             -200               0             -200               0
1.42105               -0.1423155       -16.98806        -56.39244       -33.43973             -200               0             -200               0
1.42763               -0.1467968         -17.137        -56.42083       -36.39857             -200               0             -200               0
1.43421               -0.1513893       -17.28705        -56.44508       -39.17786             -200               0             -200               0
1.44079               -0.1560836       -17.43822        -56.46149       -41.77647             -200               0             -200               0
1.44737               -0.1608715       -17.59055        -56.46603       -44.19728             -200               0             -200               0
1.45395               -0.1657446        -17.7441        -56.45456       -46.44794             -200               0             -200               0
1.46053               -0.1706964       -17.89894        -56.42294       -48.54156             -200               0             -200               0
1.46711               -0.1757194       -18.05513        -56.36725       -50.49697             -200               0             -200               0
1.47368               -0.1808097       -18.21279        -56.28403        -52.3387             -200               0             -200               0
1.48026               -0.1859637         -18.372        -56.17053       -54.09624             -200               0             -200               0
1.48684               -0.1911803       -18.53286        -56.02493       -55.80288             -200               0             -200               0
1.49342               -0.1964594        -18.6955        -55.84649       -57.49399             -200               0             -200               0
1.5                   -0.2018049       -18.86004        -55.63559        -59.2051             -200               0             -200               0
1.50658               -0.2072218       -19.02658        -55.39367       -60.96986             -200               0             -200               0
1.51316               -0.2127169       -19.19526        -55.12317       -62.81836             -200               0             -200               0
1.51974               -0.2183003       -19.36618        -54.82723       -64.77581             -200               0             -200               0
1.52632               -0.2239829       -19.53945        -54.50951       -66.86178             -200               0             -200               0
1.53289               -0.2297801       -19.71518         -54.1739       -69.09005             -200               0             -200               0
1.53947               -0.2357062       -19.89347        -53.82435       -71.46886             -200               0             -200               0
1.54605               -0.2417778       -20.07439        -53.46465       -74.00151             -200               0             -200               0
1.55263               -0.2480138       -20.25802        -53.09832       -76.68716             -200               0             -200               0
1.55921               -0.2544338       -20.44442        -52.72856       -79.52169             -200               0             -200               0
1.56579               -0.2610578       -20.63362        -52.35815       -82.49847             -200               0             -200               0
1.57237               -0.2679022       -20.82565         -51.9895       -85.60914             -200               0             -200               0
1.57895               -0.2749899       -21.02053        -51.62461       -88.84421             -200               0             -200               0
1.58553                -0.282339       -21.21827        -51.26518       -92.19351             -200               0             -200               0
1.59211               -0.2899661       -21.41884        -50.91253       -95.64665             -200               0             -200               0
1.59868               -0.2978892       -21.62223        -50.56776       -99.19322             -200               0             -200               0
1.60526               -0.3061223       -21.82839        -50.23167        -102.823             -200               0             -200               0
1.61184               -0.3146795        -22.0373        -49.90489       -106.5261             -200               0             -200               0
1.61842               -0.3235703       -22.24891        -49.58786       -110.2932             -200               0             -200               0
1.625                 -0.3328046       -22.46316        -49.28086       -114.1151             -200               0             -200               0
1.63158               -0.3423883       -22.68002        -48.98405       -117.9833             -200               0             -200               0
1.63816               -0.3523252       -22.89943        -48.69747       -121.8899             -200               0             -200               0
1.64474               -0.3626171       -23.12136        -48.42108       -125.8271             -200               0             -200               0
1.65132               -0.3732646       -23.34578        -48.15474       -129.7879             -200               0             -200               0
1.65789               -0.3842634       -23.57267        -47.89825       -133.7654             -200               0             -200               0
1.66447               -0.3956113       -23.80203        -47.65134       -137.7533             -200               0             -200               0
1.67105               -0.4073012       -24.03386        -47.41368       -141.7457             -200               0             -200               0
1.67763               -0.4193282       -24.26821        -47.18488       -145.7369             -200               0             -200               0
1.68421               -0.4316832       -24.50513        -46.96452       -149.7216             -200               0             -200               0
1.69079               -0.4443616       -24.74469         -46.7521       -153.6949             -200               0             -200               0
1.69737               -0.4573534       -24.98698         -46.5471       -157.6523             -200               0             -200               0
1.70395               -0.4706546       -25.23212        -46.34893       -161.5895             -200               0             -200               0
1.71053               -0.4842606       -25.48026        -46.15697       -165.5026             -200               0             -200               0
1.71711               -0.4981673       -25.73155        -45.97055       -169.3881             -200               0             -200               0
1.72368               -0.5123763       -25.98618        -45.78894       -173.2429             -200               0             -200               0
1.73026               -0.5268883       -26.24434        -45.61138       -177.0643             -200               0             -200               0
1.73684               -0.5417101       -26.50625        -45.43709        179.1498             -200               0             -200               0
1.74342               -0.5568509       -26.77215        -45.26522        175.4011             -200               0             -200               0
1.75                  -0.5723237       -27.04226         -45.0949        171.6907             -200               0             -200               0
1.75658                -0.588146       -27.31684        -44.92525        168.0191             -200               0             -200               0
1.76316               -0.6043392       -27.59614        -44.75536        164.3863             -200               0             -200               0
1.76974               -0.6209292       -27.88041        -44.58432        160.7914             -200               0             -200               0
1.77632                -0.637946       -28.16989        -44.41123        157.2329             -200               0             -200               0
1.78289               -0.6554235       -28.46484        -44.23521        153.7086             -200               0             -200               0
1.78947               -0.6734011       -28.76547        -44.05541        150.2155             -200               0             -200               0
1.79605               -0.6919208       -29.07202        -43.87104          146.75             -200               0             -200               0
1.80263               -0.7110272       -29.38469        -43.68139        143.3077             -200               0             -200               0
1.80921               -0.7307699       -29.70366         -43.4858        139.8838             -200               0             -200               0
1.81579               -0.7511985       -30.02912        -43.28375        136.4727             -200               0             -200               0
1.82237               -0.7723675        -30.3612         -43.0748        133.0685             -200               0             -200               0
1.82895                -0.794331       -30.70004        -42.85864         129.665             -200               0             -200               0
1.83553                -0.817145       -31.04576         -42.6351        126.2558             -200               0             -200               0
1.84211               -0.8408666       -31.39844        -42.40412        122.8343             -200               0             -200               0
1.84868               -0.8655539       -31.75817        -42.16579        119.3942             -200               0             -200               0
1.85526               -0.8912624         -32.125        -41.92031        115.9292             -200               0             -200               0
1.86184               -0.9180501       -32.49897          -41.668        112.4334             -200               0             -200               0
1.86842               -0.9459715       -32.88013        -41.40927        108.9014             -200               0             -200               0
1.875                 -0.9750839       -33.26851        -41.14465        105.3281             -200               0             -200               0
1.88158                 -1.00544       -33.66413        -40.87471        101.7091             -200               0             -200               0
1.88816                -1.037093       -34.06701        -40.60011        98.04077             -200               0             -200               0
1.89474                -1.070096       -34.47719        -40.32153        94.31981             -200               0             -200               0
1.90132                  -1.1045       -34.89471        -40.03968        90.54371             -200               0             -200               0
1.90789                -1.140358        -35.3196        -39.75529        86.71058             -200               0             -200               0
1.91447                 -1.17772       -35.75195        -39.46907        82.81907             -200               0             -200               0
1.92105                 -1.21664       -36.19183        -39.18175        78.86841             -200               0             -200               0
1.92763                -1.257171       -36.63935          -38.894        74.85831             -200               0             -200               0
1.93421                -1.299369       -37.09464         -38.6065        70.78892             -200               0             -200               0
1.94079                -1.343296       -37.55785        -38.31987         66.6608             -200               0             -200               0
1.94737                -1.389011       -38.02918        -38.03469        62.47483             -200               0             -200               0
1.95395                -1.436585       -38.50883        -37.75152        58.23216             -200               0             -200               0
1.96053                -1.486091       -38.99703        -37.47085         53.9342             -200               0             -200               0
1.96711                -1.537611       -39.49406        -37.19316        49.58253             -200               0             -200               0
1.97368                -1.591235        -40.0002        -36.91886        45.17887             -200               0             -200               0
1.98026                -1.647061       -40.51576        -36.64834        40.72507             -200               0             -200               0
1.98684                  -1.7052       -41.04106        -36.38193        36.22304             -200               0             -200               0
1.99342                -1.765772       -41.57643        -36.11996        31.67474             -200               0             -200               0
2                      -1.828909       -42.12221        -35.86268        27.08217             -200               0             -200               0
2.00658                 -1.89476       -42.67875        -35.61034        22.44732             -200               0             -200               0
2.01316                -1.963484       -43.24637        -35.36315        17.77218             -200               0             -200               0
2.01974                -2.035258       -43.82537        -35.12131        13.05871             -200               0             -200               0
2.02632                -2.110275       -44.41606        -34.88496        8.308843             -200               0             -200               0
2.03289                -2.188741       -45.01868        -34.65425        3.524467             -200               0             -200               0
2.03947                -2.270881       -45.63345         -34.4293       -1.292581             -200               0             -200               0
2.04605                -2.356941       -46.26052        -34.21021       -6.140512             -200               0             -200               0
2.05263                -2.447177       -46.89998        -33.99706       -11.01759             -200               0             -200               0
2.05921                -2.541869       -47.55187        -33.78993       -15.92215             -200               0             -200               0
2.06579                -2.641313       -48.21611        -33.58887       -20.85256             -200               0             -200               0
2.07237                -2.745826       -48.89256        -33.39394       -25.80727             -200               0             -200               0
2.07895                 -2.85574       -49.58098        -33.20516       -30.78476             -200               0             -200               0
2.08553                -2.971408       -50.28097        -33.02257       -35.78361             -200               0             -200               0
2.09211                -3.093205       -50.99207        -32.84619       -40.80241             -200               0             -200               0
2.09868                -3.221519       -51.71365        -32.67603       -45.83982             -200               0             -200               0
2.10526                -3.356768       -52.44496        -32.51211       -50.89456             -200               0             -200               0
2.11184                -3.499383       -53.18505        -32.35441       -55.96537             -200               0             -200               0
2.11842                -3.649821       -53.93286        -32.20296       -61.05107             -200               0             -200               0
2.125                   -3.80856       -54.68711        -32.05773        -66.1505             -200               0             -200               0
2.13158                -3.976104       -55.44633        -31.91873       -71.26255             -200               0             -200               0
2.13816                -4.152983       -56.20886        -31.78593       -76.38615             -200               0             -200               0
2.14474                -4.339753       -56.97277        -31.65934       -81.52026             -200               0             -200               0
2.15132                -4.537001       -57.73588        -31.53893       -86.66388             -200               0             -200               0
2.15789                -4.745347       -58.49575        -31.42469       -91.81604             -200               0             -200               0
2.16447                 -4.96545       -59.24959        -31.31661       -96.97578             -200               0             -200               0
2.17105                -5.198003       -59.99427        -31.21465       -102.1422             -200               0             -200               0
2.17763                 -5.44375       -60.72624        -31.11882       -107.3144             -200               0             -200               0
2.18421                -5.703479        -61.4415        -31.02907       -112.4915             -200               0             -200               0
2.19079                -5.978035       -62.13551        -30.94541       -117.6727             -200               0             -200               0
2.19737                -6.268325       -62.80308         -30.8678       -122.8571             -200               0             -200               0
2.20395                -6.575322        -63.4383        -30.79622       -128.0439             -200               0             -200               0
2.21053                -6.900077        -64.0344        -30.73066       -133.2324             -200               0             -200               0
2.21711                -7.243723       -64.58353        -30.67109       -138.4216             -200               0             -200               0
2.22368                -7.607488       -65.07661         -30.6175        -143.611             -200               0             -200               0
2.23026                -7.992696       -65.50304        -30.56985       -148.7995             -200               0             -200               0
2.23684                -8.400781       -65.85032        -30.52814       -153.9866             -200               0             -200               0
2.24342                -8.833285       -66.10366        -30.49234       -159.1715             -200               0             -200               0
2.25                   -9.291861       -66.24537        -30.46243       -164.3533             -200               0             -200               0
2.25658                -9.778252       -66.25421        -30.43839       -169.5314             -200               0             -200               0
2.26316                -10.29427       -66.10436        -30.42019        -174.705             -200               0             -200               0
2.26974                -10.84173        -65.7643        -30.40782       -179.8734             -200               0             -200               0
2.27632                -11.42234       -65.19524        -30.40126        174.9643             -200               0             -200               0
2.28289                 -12.0375       -64.34915        -30.40048        169.8087             -200               0             -200               0
2.28947                -12.68799       -63.16645        -30.40546        164.6606             -200               0             -200               0