! TOUCHSTONE file generated by CST MICROWAVE STUDIO
! Date and time: Tue Mar 18 20:31:55 2025
! Project name: hairline.cst
! Parameters = {B=12.5; D=160; F=25; Feed=2.85625; Fracture=0.5; L=100; M=30; R=0.384908; S=1.5; Theta=270; length=57.125; wave=114.25}
! Header version: 2024
! Port assignment regex: !\s*Touchstone port\s*([0-9]+)\s*=\s*(CST MWS port|CST DES external port|CST DES block port)\s*(.+)\s* \(\"(.*)\"\)(\s*mode\s*([0-9]+))?.*
! Touchstone port assignment:
! Touchstone port 1 = CST MWS port 1 ("")
! Touchstone port 2 = CST MWS port 2 ("")
# GHz S DB R 50
1                    -0.02121863        -9.75805        -66.33849         162.114             -200               0             -200               0
1.00658              -0.02180039       -9.843736         -66.3851        156.4495             -200               0             -200               0
1.01316              -0.02235552       -9.930103        -66.46578        150.9074             -200               0             -200               0
1.01974              -0.02289093       -10.01721        -66.58166           145.5             -200               0             -200               0
1.02632               -0.0234078       -10.10511        -66.73408        140.2431             -200               0             -200               0
1.03289              -0.02391311       -10.19386        -66.92455        135.1563             -200               0             -200               0
1.03947               -0.0244119        -10.2835         -67.1547        130.2646             -200               0             -200               0
1.04605              -0.02491512       -10.37406        -67.42629        125.5992             -200               0             -200               0
1.05263              -0.02542812       -10.46559          -67.741        121.1998             -200               0             -200               0
1.05921              -0.02595965       -10.55811         -68.1003        117.1165             -200               0             -200               0
1.06579              -0.02652179       -10.65162        -68.50505        113.4129             -200               0             -200               0
1.07237               -0.0271195       -10.74613        -68.95486        110.1693             -200               0             -200               0
1.07895              -0.02776545       -10.84165        -69.44705        107.4867             -200               0             -200               0
1.08553              -0.02846726       -10.93815        -69.97495         105.489             -200               0             -200               0
1.09211              -0.02923126       -11.03561        -70.52519        104.3219             -200               0             -200               0
1.09868                -0.030066       -11.13402        -71.07408        104.1423             -200               0             -200               0
1.10526              -0.03097781       -11.23333        -71.58338        105.0876             -200               0             -200               0
1.11184              -0.03197152        -11.3335          -71.998        107.2155             -200               0             -200               0
1.11842              -0.03305113       -11.43449        -72.25062        110.4163             -200               0             -200               0
1.125                -0.03421963       -11.53626        -72.27809        114.3427             -200               0             -200               0
1.13158              -0.03547707       -11.63876        -72.04667        118.4374             -200               0             -200               0
1.13816              -0.03682392       -11.74193        -71.56884        122.0937             -200               0             -200               0
1.14474              -0.03825752       -11.84574        -70.89678        124.8529             -200               0             -200               0
1.15132              -0.03977671       -11.95014        -70.09849        126.4978             -200               0             -200               0
1.15789              -0.04137661        -12.0551         -69.2359        127.0188             -200               0             -200               0
1.16447              -0.04304976       -12.16058        -68.35501        126.5255             -200               0             -200               0
1.17105               -0.0447931       -12.26657        -67.48574        125.1717             -200               0             -200               0
1.17763              -0.04659708       -12.37305        -66.64561        123.1115             -200               0             -200               0
1.18421               -0.0484537       -12.48001        -65.84386        120.4807             -200               0             -200               0
1.19079               -0.0503577       -12.58746        -65.08459        117.3919             -200               0             -200               0
1.19737              -0.05229917       -12.69542        -64.36886        113.9362             -200               0             -200               0
1.20395              -0.05427005        -12.8039        -63.69608        110.1861             -200               0             -200               0
1.21053              -0.05626336       -12.91296        -63.06473        106.1993             -200               0             -200               0
1.21711              -0.05827243       -13.02261        -62.47294         102.022             -200               0             -200               0
1.22368              -0.06029051       -13.13294        -61.91864        97.69112             -200               0             -200               0
1.23026              -0.06231454       -13.24398        -61.39984        93.23687             -200               0             -200               0
1.23684              -0.06434045       -13.35581         -60.9146        88.68385             -200               0             -200               0
1.24342              -0.06636543       -13.46851        -60.46113        84.05249             -200               0             -200               0
1.25                 -0.06838936       -13.58213        -60.03778        79.35996             -200               0             -200               0
1.25658              -0.07041292       -13.69677        -59.64306        74.62083             -200               0             -200               0
1.26316              -0.07243925       -13.81251        -59.27562        69.84769             -200               0             -200               0
1.26974              -0.07447119        -13.9294        -58.93423        65.05157             -200               0             -200               0
1.27632              -0.07651689       -14.04753         -58.6178        60.24227             -200               0             -200               0
1.28289              -0.07858075       -14.16696        -58.32533        55.42865             -200               0             -200               0
1.28947              -0.08067284       -14.28775        -58.05592        50.61888             -200               0             -200               0
1.29605              -0.08280235       -14.40996        -57.80876        45.82058             -200               0             -200               0
1.30263              -0.08497881       -14.53363         -57.5831        41.04101             -200               0             -200               0
1.30921              -0.08721371       -14.65879        -57.37825         36.2872             -200               0             -200               0
1.31579              -0.08951723       -14.78547        -57.19358        31.56605             -200               0             -200               0
1.32237              -0.09190335       -14.91368        -57.02848        26.88445             -200               0             -200               0
1.32895              -0.09438138       -15.04342        -56.88236        22.24933             -200               0             -200               0
1.33553              -0.09696199        -15.1747        -56.75465         17.6678             -200               0             -200               0
1.34211               -0.0996559       -15.30748        -56.64475        13.14717             -200               0             -200               0
1.34868               -0.1024712       -15.44175        -56.55206        8.695009             -200               0             -200               0
1.35526               -0.1054189       -15.57748        -56.47594        4.319249             -200               0             -200               0
1.36184               -0.1085024       -15.71462        -56.41567      0.02816495             -200               0             -200               0
1.36842               -0.1117286       -15.85314        -56.37045       -4.169572             -200               0             -200               0
1.375                 -0.1150995       -15.99299        -56.33937       -8.264903             -200               0             -200               0
1.38158               -0.1186196       -16.13413        -56.32139       -12.24841             -200               0             -200               0
1.38816               -0.1222865       -16.27651        -56.31526       -16.11039             -200               0             -200               0
1.39474               -0.1261011       -16.42009        -56.31956       -19.84096             -200               0             -200               0
1.40132               -0.1300599       -16.56484        -56.33258       -23.43025             -200               0             -200               0
1.40789               -0.1341568       -16.71073        -56.35235       -26.86869             -200               0             -200               0
1.41447               -0.1383894       -16.85773        -56.37657       -30.14733             -200               0             -200               0
1.42105               -0.1427472       -17.00584        -56.40256       -33.25839             -200               0             -200               0
1.42763               -0.1472262       -17.15506         -56.4273       -36.19576             -200               0             -200               0
1.43421               -0.1518164        -17.3054        -56.44742       -38.95579             -200               0             -200               0
1.44079               -0.1565091       -17.45689        -56.45918       -41.53804             -200               0             -200               0
1.44737               -0.1612985       -17.60956        -56.45865        -43.9461             -200               0             -200               0
1.45395               -0.1661753       -17.76347        -56.44173       -46.18836             -200               0             -200               0
1.46053               -0.1711336       -17.91868        -56.40439       -48.27855             -200               0             -200               0
1.46711               -0.1761663       -18.07527        -56.34284       -50.23603             -200               0             -200               0
1.47368               -0.1812677       -18.23333         -56.2538       -52.08561             -200               0             -200               0
1.48026               -0.1864385       -18.39295         -56.1347       -53.85677             -200               0             -200               0
1.48684               -0.1916731       -18.55424        -55.98389       -55.58248             -200               0             -200               0
1.49342                -0.196975       -18.71731         -55.8008       -57.29747             -200               0             -200               0
1.5                   -0.2023464       -18.88227        -55.58591       -59.03639             -200               0             -200               0
1.50658               -0.2077915       -19.04924         -55.3408       -60.83181             -200               0             -200               0
1.51316               -0.2133192       -19.21834        -55.06791       -62.71267             -200               0             -200               0
1.51974               -0.2189381       -19.38968        -54.77039       -64.70306             -200               0             -200               0
1.52632               -0.2246584       -19.56337        -54.45185       -66.82156             -200               0             -200               0
1.53289                -0.230495       -19.73951        -54.11612       -69.08109             -200               0             -200               0
1.53947               -0.2364614       -19.91819        -53.76705       -71.48927             -200               0             -200               0
1.54605               -0.2425761        -20.0995        -53.40833       -74.04895             -200               0             -200               0
1.55263               -0.2488562       -20.28351         -53.0434       -76.75902             -200               0             -200               0
1.55921               -0.2553218       -20.47027        -52.67533       -79.61524             -200               0             -200               0
1.56579               -0.2619882       -20.65983        -52.30685       -82.61097             -200               0             -200               0
1.57237               -0.2688784       -20.85222        -51.94029       -85.73794             -200               0             -200               0
1.57895                 -0.27601       -21.04745        -51.57759       -88.98677             -200               0             -200               0
1.58553               -0.2834017       -21.24553        -51.22038       -92.34748             -200               0             -200               0
1.59211               -0.2910719       -21.44644        -50.86997       -95.80985             -200               0             -200               0
1.59868                -0.299037       -21.65018         -50.5274       -99.36365             -200               0             -200               0
1.60526               -0.3073101        -21.8567        -50.19347       -102.9989             -200               0             -200               0
1.61184               -0.3159064       -22.06597        -49.86878       -106.7058             -200               0             -200               0
1.61842               -0.3248352       -22.27794        -49.55375       -110.4752             -200               0             -200               0
1.625                 -0.3341068       -22.49258        -49.24866       -114.2981             -200               0             -200               0
1.63158               -0.3437262       -22.70984        -48.95365       -118.1661             -200               0             -200               0
1.63816               -0.3536989       -22.92967        -48.66877       -122.0714             -200               0             -200               0
1.64474               -0.3640258       -23.15204        -48.39396       -126.0065             -200               0             -200               0
1.65132                -0.374708       -23.37693        -48.12908       -129.9641             -200               0             -200               0
1.65789               -0.3857433       -23.60431        -47.87393       -133.9378             -200               0             -200               0
1.66447               -0.3971273       -23.83419        -47.62824       -137.9212             -200               0             -200               0
1.67105               -0.4088551       -24.06658        -47.39167       -141.9084             -200               0             -200               0
1.67763               -0.4209208       -24.30151        -47.16384       -145.8938             -200               0             -200               0
1.68421               -0.4333183       -24.53904        -46.94432       -149.8723             -200               0             -200               0
1.69079               -0.4460401       -24.77924         -46.7326        -153.839             -200               0             -200               0
1.69737               -0.4590799        -25.0222        -46.52817       -157.7894             -200               0             -200               0
1.70395                -0.472432       -25.26805        -46.33043       -161.7193             -200               0             -200               0
1.71053               -0.4860931       -25.51692        -46.13876       -165.6249             -200               0             -200               0
1.71711               -0.5000601       -25.76897        -45.95248       -169.5026             -200               0             -200               0
1.72368               -0.5143334       -26.02439        -45.77087       -173.3497             -200               0             -200               0
1.73026               -0.5289153       -26.28337        -45.59317       -177.1633             -200               0             -200               0
1.73684               -0.5438121       -26.54612        -45.41857        179.0585             -200               0             -200               0
1.74342               -0.5590343       -26.81287        -45.24625        175.3173             -200               0             -200               0
1.75                  -0.5745932       -27.08386        -45.07534        171.6143             -200               0             -200               0
1.75658                -0.590509       -27.35934        -44.90494        167.9497             -200               0             -200               0
1.76316               -0.6068011       -27.63955        -44.73416        164.3234             -200               0             -200               0
1.76974               -0.6234951       -27.92474        -44.56209        160.7344             -200               0             -200               0
1.77632               -0.6406232       -28.21517        -44.38783        157.1813             -200               0             -200               0
1.78289               -0.6582192       -28.51106        -44.21053        153.6615             -200               0             -200               0
1.78947               -0.6763199       -28.81266        -44.02933        150.1721             -200               0             -200               0
1.79605                -0.694969       -29.12018        -43.84348        146.7094             -200               0             -200               0
1.80263               -0.7142113       -29.43383        -43.65225        143.2688             -200               0             -200               0
1.80921               -0.7340943        -29.7538        -43.45503        139.8455             -200               0             -200               0
1.81579               -0.7546701       -30.08026         -43.2513        136.4339             -200               0             -200               0
1.82237               -0.7759914       -30.41336        -43.04065        133.0281             -200               0             -200               0
1.82895               -0.7981133       -30.75323         -42.8228        129.6218             -200               0             -200               0
1.83553               -0.8210922           -31.1        -42.59758        126.2087             -200               0             -200               0
1.84211               -0.8449843       -31.45374        -42.36497        122.7822             -200               0             -200               0
1.84868               -0.8698469       -31.81455        -42.12507        119.3359             -200               0             -200               0
1.85526               -0.8957381       -32.18248        -41.87809        115.8639             -200               0             -200               0
1.86184               -0.9227141       -32.55759        -41.62437        112.3601             -200               0             -200               0
1.86842                -0.950831       -32.93991        -41.36435        108.8193             -200               0             -200               0
1.875                 -0.9801457       -33.32947        -41.09855        105.2366             -200               0             -200               0
1.88158                -1.010711       -33.72631        -40.82756        101.6077             -200               0             -200               0
1.88816                -1.042582       -34.13045        -40.55202        97.92887             -200               0             -200               0
1.89474                -1.075811       -34.54193        -40.27264         94.1971             -200               0             -200               0
1.90132                -1.110451       -34.96078        -39.99011        90.40995             -200               0             -200               0
1.90789                -1.146554       -35.38707        -39.70516        86.56561             -200               0             -200               0
1.91447                -1.184173       -35.82085        -39.41852        82.66282             -200               0             -200               0
1.92105                -1.223361       -36.26221        -39.13088        78.70089             -200               0             -200               0
1.92763                -1.264174       -36.71127        -38.84293         74.6796             -200               0             -200               0
1.93421                -1.306669       -37.16816        -38.55532        70.59916             -200               0             -200               0
1.94079                -1.350905       -37.63304        -38.26868        66.46016             -200               0             -200               0
1.94737                 -1.39695       -38.10608        -37.98357        62.26353             -200               0             -200               0
1.95395                -1.444871        -38.5875        -37.70055        58.01044             -200               0             -200               0
1.96053                -1.494744       -39.07756        -37.42011        53.70233             -200               0             -200               0
1.96711                -1.546653       -39.57649         -37.1427         49.3408             -200               0             -200               0
1.97368                -1.600688       -40.08459        -36.86874        44.92757             -200               0             -200               0
1.98026                -1.656952       -40.60218        -36.59861         40.4645             -200               0             -200               0
1.98684                -1.715555       -41.12956        -36.33265        35.95349             -200               0             -200               0
1.99342                 -1.77662       -41.66708        -36.07114        31.39652             -200               0             -200               0
2                      -1.840282       -42.21506        -35.81438        26.79556             -200               0             -200               0
2.00658                -1.906691       -42.77385        -35.56258         22.1526             -200               0             -200               0
2.01316                -1.976009       -43.34377        -35.31596        17.46962             -200               0             -200               0
2.01974                -2.048417       -43.92512         -35.0747        12.74858             -200               0             -200               0
2.02632                -2.124107       -44.51819        -34.83895        7.991387             -200               0             -200               0
2.03289                -2.203291       -45.12323        -34.60886        3.199921             -200               0             -200               0
2.03947                -2.286196       -45.74043        -34.38455        -1.62399             -200               0             -200               0
2.04605                -2.373067       -46.36994         -34.1661       -6.478572             -200               0             -200               0
2.05263                 -2.46417       -47.01186        -33.95361       -11.36211             -200               0             -200               0
2.05921                -2.559784       -47.66619        -33.74715       -16.27292             -200               0             -200               0
2.06579                 -2.66021       -48.33287        -33.54676       -21.20942             -200               0             -200               0
2.07237                -2.765765       -49.01172        -33.35251       -26.17006             -200               0             -200               0
2.07895                 -2.87679       -49.70249        -33.16441       -31.15333             -200               0             -200               0
2.08553                 -2.99364       -50.40478        -32.98251        -36.1578             -200               0             -200               0
2.09211                -3.116692        -51.1181        -32.80683       -41.18209             -200               0             -200               0
2.09868                -3.246344        -51.8418        -32.63737       -46.22488             -200               0             -200               0
2.10526                -3.383014        -52.5751        -32.47414       -51.28486             -200               0             -200               0
2.11184                -3.527141       -53.31705        -32.31716       -56.36083             -200               0             -200               0
2.11842                -3.679188       -54.06655        -32.16641       -61.45158             -200               0             -200               0
2.125                  -3.839638       -54.82228         -32.0219       -66.55597             -200               0             -200               0
2.13158                -4.009002       -55.58276        -31.88361        -71.6729             -200               0             -200               0
2.13816                -4.187818       -56.34625        -31.75154        -76.8013             -200               0             -200               0
2.14474                 -4.37665       -57.11081        -31.62567       -81.94013             -200               0             -200               0
2.15132                -4.576097       -57.87421        -31.50599       -87.08841             -200               0             -200               0
2.15789                -4.786786       -58.63394        -31.39249       -92.24516             -200               0             -200               0
2.16447                -5.009386       -59.38715        -31.28515       -97.40944             -200               0             -200               0
2.17105                -5.244608       -60.13063        -31.18394       -102.5803             -200               0             -200               0
2.17763                -5.493204       -60.86075        -31.08886        -107.757             -200               0             -200               0
2.18421                 -5.75598        -61.5734        -30.99988       -112.9385             -200               0             -200               0
2.19079                -6.033798       -62.26389        -30.91699        -118.124             -200               0             -200               0
2.19737                -6.327583       -62.92692        -30.84016       -123.3127             -200               0             -200               0
2.20395                -6.638331        -63.5564        -30.76937       -128.5037             -200               0             -200               0
2.21053                -6.967115        -64.1453        -30.70461       -133.6964             -200               0             -200               0
2.21711                -7.315098       -64.68559        -30.64585       -138.8898             -200               0             -200               0
2.22368                -7.683532       -65.16781        -30.59308       -144.0832             -200               0             -200               0
2.23026                -8.073776         -65.581        -30.54627       -149.2758             -200               0             -200               0
2.23684                -8.487299       -65.91216         -30.5054        -154.467             -200               0             -200               0
2.24342                -8.925677       -66.14591        -30.47046       -159.6558             -200               0             -200               0
2.25                   -9.390601       -66.26381        -30.44143       -164.8416             -200               0             -200               0
2.25658                 -9.88385       -66.24363        -30.41827       -170.0236             -200               0             -200               0
2.26316                -10.40726       -66.05837        -30.40098        -175.201             -200               0             -200               0
2.26974                -10.96266       -65.67491        -30.38954        179.6269             -200               0             -200               0
2.27632                -11.55174       -65.05246        -30.38391        174.4608             -200               0             -200               0
2.28289                -12.17582       -64.14044        -30.38409        169.3016             -200               0             -200               0
2.28947                -12.83552       -62.87599        -30.39005        164.1499             -200               0             -200               0