! TOUCHSTONE file generated by CST MICROWAVE STUDIO
! Date and time: Tue Mar 11 13:56:30 2025
! Project name: transverse.cst
! Parameters = {Fracture=5; B=10; D=160; F=5; Feed=2.85625; L=100; M=10; R=0.384908; S=1; Theta=90; length=57.125; wave=114.25}
! Header version: 2024
! Port assignment regex: !\s*Touchstone port\s*([0-9]+)\s*=\s*(CST MWS port|CST DES external port|CST DES block port)\s*(.+)\s* \(\"(.*)\"\)(\s*mode\s*([0-9]+))?.*
! Touchstone port assignment:
! Touchstone port 1 = CST MWS port 1 ("")
! Touchstone port 2 = CST MWS port 2 ("")
# GHz S MA R 50
1                       0.997919       -9.746959     0.0003099416        -114.623                0               0                0               0
1.00658                 0.997836       -9.836125     0.0003350447       -120.1197                0               0                0               0
1.01316                0.9977451        -9.92572     0.0003592387       -125.6247                0               0                0               0
1.01974                0.9976463       -10.01569      0.000382389       -131.1274                0               0                0               0
1.02632                0.9975407       -10.10599     0.0004043628       -136.6193                0               0                0               0
1.03289                0.9974289       -10.19659     0.0004250301       -142.0932                0               0                0               0
1.03947                0.9973118       -10.28744     0.0004442638       -147.5426                0               0                0               0
1.04605                0.9971906       -10.37854      0.000461941       -152.9615                0               0                0               0
1.05263                0.9970665       -10.46988     0.0004779437       -158.3441                0               0                0               0
1.05921                0.9969403       -10.56146     0.0004921592       -163.6844                0               0                0               0
1.06579                0.9968135        -10.6533     0.0005044817       -168.9764                0               0                0               0
1.07237                0.9966872       -10.74542     0.0005148129       -174.2132                0               0                0               0
1.07895                0.9965625       -10.83787      0.000523063       -179.3877                0               0                0               0
1.08553                0.9964403       -10.93069     0.0005291521        175.5085                0               0                0               0
1.09211                0.9963216       -11.02395     0.0005330117        170.4849                0               0                0               0
1.09868                0.9962071       -11.11772     0.0005345857        165.5524                0               0                0               0
1.10526                0.9960971       -11.21208     0.0005338328        160.7238                0               0                0               0
1.11184                0.9959923       -11.30712     0.0005307285        156.0145                0               0                0               0
1.11842                0.9958927       -11.40291     0.0005252678        151.4426                0               0                0               0
1.125                  0.9957983       -11.49956     0.0005174686        147.0303                0               0                0               0
1.13158                0.9957084       -11.59715      0.000507376        142.8042                0               0                0               0
1.13816                0.9956229       -11.69576     0.0004950683        138.7974                0               0                0               0
1.14474                 0.995541       -11.79549     0.0004806646        135.0505                0               0                0               0
1.15132                0.9954615       -11.89642     0.0004643346        131.6136                0               0                0               0
1.15789                0.9953836        -11.9986      0.000446314         128.549                0               0                0               0
1.16447                0.9953057        -12.1021     0.0004269221        125.9339                0               0                0               0
1.17105                0.9952266       -12.20697      0.000406589        123.8621                0               0                0               0
1.17763                0.9951449       -12.31325     0.0003858889        122.4453                0               0                0               0
1.18421                0.9950588       -12.42095     0.0003655808        121.8096                0               0                0               0
1.19079                 0.994967        -12.5301     0.0003466525        122.0826                0               0                0               0
1.19737                0.9948677       -12.64068     0.0003303487        123.3648                0               0                0               0
1.20395                0.9947594       -12.75269     0.0003181503        125.6794                0               0                0               0
1.21053                 0.994641        -12.8661     0.0003116564        128.9068                0               0                0               0
1.21711                 0.994511       -12.98086     0.0003123363        132.7414                0               0                0               0
1.22368                0.9943684       -13.09694     0.0003212096        136.7211                0               0                0               0
1.23026                0.9942123       -13.21428     0.0003386097        140.3477                0               0                0               0
1.23684                0.9940419       -13.33281     0.0003641793        143.2312                0               0                0               0
1.24342                0.9938568       -13.45247     0.0003970801         145.166                0               0                0               0
1.25                   0.9936567        -13.5732     0.0004362664        146.1159                0               0                0               0
1.25658                0.9934415       -13.69492     0.0004806906        146.1523                0               0                0               0
1.26316                0.9932116       -13.81758     0.0005294103        145.3957                0               0                0               0
1.26974                0.9929674       -13.94111     0.0005816178        143.9759                0               0                0               0
1.27632                0.9927095       -14.06547      0.000636634        142.0131                0               0                0               0
1.28289                0.9924386        -14.1906     0.0006938862        139.6108                0               0                0               0
1.28947                0.9921559       -14.31649     0.0007528868        136.8551                0               0                0               0
1.29605                0.9918623       -14.44311     0.0008132131         133.816                0               0                0               0
1.30263                0.9915593       -14.57045     0.0008744931        130.5506                0               0                0               0
1.30921                0.9912478       -14.69853     0.0009363941        127.1055                0               0                0               0
1.31579                0.9909295       -14.82737     0.0009986155        123.5185                0               0                0               0
1.32237                0.9906052         -14.957      0.001060882        119.8209                0               0                0               0
1.32895                0.9902762       -15.08748      0.001122944         116.039                0               0                0               0
1.33553                0.9899436       -15.21888      0.001184571        112.1946                0               0                0               0
1.34211                0.9896083       -15.35128      0.001245553        108.3066                0               0                0               0
1.34868                 0.989271       -15.48476      0.001305703        104.3911                0               0                0               0
1.35526                 0.988932       -15.61943      0.001364854        100.4624                0               0                0               0
1.36184                0.9885918       -15.75539       0.00142286        96.53299                0               0                0               0
1.36842                0.9882501       -15.89277      0.001479603        92.61413                0               0                0               0
1.375                  0.9879069       -16.03166      0.001534989        88.71607                0               0                0               0
1.38158                0.9875614       -16.17219      0.001588953        84.84815                0               0                0               0
1.38816                0.9872128       -16.31447      0.001641461        81.01897                0               0                0               0
1.39474                0.9868601       -16.45861      0.001692515        77.23651                0               0                0               0
1.40132                 0.986502        -16.6047      0.001742151        73.50813                0               0                0               0
1.40789                0.9861368       -16.75284      0.001790448        69.84063                0               0                0               0
1.41447                0.9857628       -16.90311      0.001837524        66.24022                0               0                0               0
1.42105                0.9853782       -17.05556      0.001883544        62.71248                0               0                0               0
1.42763                0.9849808       -17.21027       0.00192872         59.2623                0               0                0               0
1.43421                0.9845688       -17.36725      0.001973313        55.89374                0               0                0               0
1.44079                0.9841399       -17.52653      0.002017635        52.60996                0               0                0               0
1.44737                0.9836922       -17.68811      0.002062045        49.41306                0               0                0               0
1.45395                0.9832236       -17.85199      0.002106956        46.30393                0               0                0               0
1.46053                0.9827322       -18.01813      0.002152825        43.28208                0               0                0               0
1.46711                0.9822162       -18.18651      0.002200153        40.34553                0               0                0               0
1.47368                0.9816744       -18.35706      0.002249479        37.49068                0               0                0               0
1.48026                0.9811052       -18.52973      0.002301372        34.71225                0               0                0               0
1.48684                0.9805077       -18.70446      0.002356423        32.00325                0               0                0               0
1.49342                0.9798811       -18.88117      0.002415234        29.35504                0               0                0               0
1.5                    0.9792249       -19.05979      0.002478407         26.7575                0               0                0               0
1.50658                 0.978539       -19.24025      0.002546529        24.19923                0               0                0               0
1.51316                0.9778235       -19.42249      0.002620164        21.66785                0               0                0               0
1.51974                0.9770787       -19.60644      0.002699835         19.1504                0               0                0               0
1.52632                0.9763053       -19.79206      0.002786019        16.63369                0               0                0               0
1.53289                0.9755039       -19.97931      0.002879133        14.10479                0               0                0               0
1.53947                 0.974676       -20.16817       0.00297953        11.55138                0               0                0               0
1.54605                0.9738224       -20.35864      0.003087492        8.962113                0               0                0               0
1.55263                0.9729446       -20.55073      0.003203229        6.326923                0               0                0               0
1.55921                0.9720437       -20.74448      0.003326881        3.637211                0               0                0               0
1.56579                0.9711212       -20.93995      0.003458513       0.8859745                0               0                0               0
1.57237                0.9701784       -21.13721       0.00359813        -1.93216                0               0                0               0
1.57895                0.9692163       -21.33635      0.003745673       -4.820969                0               0                0               0
1.58553                0.9682358       -21.53751      0.003901028       -7.782722                0               0                0               0
1.59211                0.9672378        -21.7408      0.004064035       -10.81832                0               0                0               0
1.59868                0.9662226        -21.9464      0.004234491       -13.92746                0               0                0               0
1.60526                0.9651904       -22.15445      0.004412159       -17.10878                0               0                0               0
1.61184                0.9641409       -22.36515      0.004596776       -20.36009                0               0                0               0
1.61842                0.9630736       -22.57867      0.004788056       -23.67849                0               0                0               0
1.625                  0.9619873       -22.79521      0.004985694       -27.06053                0               0                0               0
1.63158                0.9608808       -23.01496      0.005189383       -30.50238                0               0                0               0
1.63816                 0.959752       -23.23811      0.005398801       -33.99989                0               0                0               0
1.64474                0.9585989       -23.46486      0.005613636       -37.54878                0               0                0               0
1.65132                0.9574186       -23.69535      0.005833572       -41.14464                0               0                0               0
1.65789                0.9562085       -23.92978      0.006058308       -44.78303                0               0                0               0
1.66447                 0.954965       -24.16828       0.00628755       -48.45957                0               0                0               0
1.67105                0.9536847       -24.41099      0.006521026       -52.16993                0               0                0               0
1.67763                0.9523637       -24.65801      0.006758483       -55.90992                0               0                0               0
1.68421                0.9509984       -24.90943      0.006999692       -59.67545                0               0                0               0
1.69079                0.9495845       -25.16531       0.00724445       -63.46265                0               0                0               0
1.69737                 0.948118        -25.4257       0.00749259       -67.26777                0               0                0               0
1.70395                 0.946595       -25.69061      0.007743978        -71.0873                0               0                0               0
1.71053                0.9450115       -25.96004      0.007998518        -74.9179                0               0                0               0
1.71711                0.9433638       -26.23396      0.008256156       -78.75647                0               0                0               0
1.72368                0.9416486       -26.51232      0.008516882       -82.60013                0               0                0               0
1.73026                0.9398623       -26.79507      0.008780735       -86.44621                0               0                0               0
1.73684                0.9380023       -27.08212      0.009047802       -90.29229                0               0                0               0
1.74342                0.9360658       -27.37339      0.009318223       -94.13622                0               0                0               0
1.75                   0.9340508       -27.66879      0.009592196       -97.97605                0               0                0               0
1.75658                0.9319554       -27.96821      0.009869966       -101.8101                0               0                0               0
1.76316                0.9297781       -28.27157       0.01015184       -105.6371                0               0                0               0
1.76974                 0.927518       -28.57878       0.01043819       -109.4558                0               0                0               0
1.77632                0.9251744       -28.88976       0.01072942       -113.2654                0               0                0               0
1.78289                0.9227471       -29.20446       0.01102602       -117.0653                0               0                0               0
1.78947                0.9202359       -29.52282        0.0113285       -120.8554                0               0                0               0
1.79605                 0.917641       -29.84484       0.01163747       -124.6355                0               0                0               0
1.80263                0.9149628       -30.17052       0.01195353       -128.4061                0               0                0               0
1.80921                0.9122018        -30.4999       0.01227737       -132.1676                0               0                0               0
1.81579                0.9093584       -30.83304       0.01260969       -135.9211                0               0                0               0
1.82237                 0.906433       -31.17006       0.01295124       -139.6676                0               0                0               0
1.82895                0.9034259       -31.51108       0.01330279       -143.4085                0               0                0               0
1.83553                0.9003372       -31.85628       0.01366513       -147.1454                0               0                0               0
1.84211                0.8971664       -32.20586       0.01403906       -150.8803                0               0                0               0
1.84868                 0.893913       -32.56005       0.01442538        -154.615                0               0                0               0
1.85526                0.8905757       -32.91912       0.01482489       -158.3518                0               0                0               0
1.86184                0.8871525       -33.28335       0.01523837       -162.0931                0               0                0               0
1.86842                0.8836413       -33.65305       0.01566659       -165.8411                0               0                0               0
1.875                  0.8800389       -34.02855       0.01611026       -169.5984                0               0                0               0
1.88158                0.8763416       -34.41018       0.01657007       -173.3674                0               0                0               0
1.88816                0.8725447       -34.79829       0.01704665       -177.1506                0               0                0               0
1.89474                 0.868643       -35.19321       0.01754059        179.0496                0               0                0               0
1.90132                0.8646306       -35.59528        0.0180524        175.2309                0               0                0               0
1.90789                0.8605004       -36.00482       0.01858251         171.391                0               0                0               0
1.91447                0.8562453       -36.42212       0.01913131        167.5278                0               0                0               0
1.92105                0.8518569       -36.84744       0.01969906        163.6393                0               0                0               0
1.92763                0.8473266       -37.28103       0.02028598        159.7239                0               0                0               0
1.93421                0.8426453       -37.72308       0.02089219        155.7799                0               0                0               0
1.94079                0.8378034       -38.17372        0.0215177         151.806                0               0                0               0
1.94737                0.8327907       -38.63306       0.02216245        147.8009                0               0                0               0
1.95395                0.8275973       -39.10113        0.0228263        143.7637                0               0                0               0
1.96053                0.8222127       -39.57792         0.023509        139.6935                0               0                0               0
1.96711                 0.816627       -40.06334       0.02421022        135.5898                0               0                0               0
1.97368                0.8108299       -40.55724       0.02492953        131.4522                0               0                0               0
1.98026                0.8048115        -41.0594       0.02566644        127.2805                0               0                0               0
1.98684                0.7985623       -41.56954       0.02642036        123.0745                0               0                0               0
1.99342                0.7920735       -42.08732       0.02719062        118.8344                0               0                0               0
2                      0.7853366       -42.61231       0.02797647        114.5604                0               0                0               0
2.00658                0.7783438       -43.14403       0.02877711        110.2528                0               0                0               0
2.01316                0.7710882       -43.68192       0.02959164        105.9122                0               0                0               0
2.01974                0.7635637       -44.22538       0.03041911        101.5391                0               0                0               0
2.02632                 0.755765       -44.77374       0.03125851        97.13419                0               0                0               0
2.03289                 0.747688       -45.32625       0.03210876        92.69818                0               0                0               0
2.03947                0.7393294       -45.88215       0.03296872        88.23189                0               0                0               0
2.04605                 0.730687       -46.44061       0.03383723        83.73619                0               0                0               0
2.05263                0.7217598       -47.00073       0.03471304        79.21197                0               0                0               0
2.05921                0.7125476       -47.56158        0.0355949        74.66018                0               0                0               0
2.06579                0.7030512        -48.1222       0.03648149        70.08179                0               0                0               0
2.07237                0.6932727       -48.68157       0.03737147         65.4778                0               0                0               0
2.07895                0.6832149       -49.23864       0.03826346         60.8492                0               0                0               0
2.08553                0.6728815       -49.79232       0.03915606        56.19702                0               0                0               0
2.09211                0.6622772       -50.34148       0.04004785        51.52227                0               0                0               0
2.09868                0.6514074       -50.88495       0.04093737        46.82596                0               0                0               0
2.10526                0.6402782       -51.42153       0.04182318        42.10914                0               0                0               0
2.11184                0.6288963       -51.94995        0.0427038         37.3728                0               0                0               0
2.11842                0.6172691       -52.46892       0.04357774        32.61794                0               0                0               0
2.125                  0.6054042       -52.97707       0.04444354        27.84556                0               0                0               0
2.13158                  0.59331       -53.47298        0.0452997        23.05663                0               0                0               0
2.13816                0.5809947       -53.95513       0.04614476        18.25214                0               0                0               0
2.14474                0.5684673       -54.42193       0.04697724        13.43301                0               0                0               0
2.15132                0.5557365       -54.87168       0.04779568        8.600204                0               0                0               0
2.15789                0.5428115       -55.30251       0.04859864        3.754634                0               0                0               0
2.16447                0.5297016       -55.71245       0.04938471       -1.102792                0               0                0               0
2.17105                0.5164161        -56.0993       0.05015248       -5.971178                0               0                0               0
2.17763                0.5029644       -56.46065       0.05090057       -10.84965                0               0                0               0
2.18421                0.4893561       -56.79382       0.05162765       -15.73734                0               0                0               0
2.19079                0.4756012       -57.09581        0.0523324       -20.63341                0               0                0               0
2.19737                0.4617096       -57.36325       0.05301356       -25.53701                0               0                0               0
2.20395                0.4476919       -57.59228       0.05366989       -30.44733                0               0                0               0
2.21053                0.4335591       -57.77856        0.0543002       -35.36355                0               0                0               0
2.21711                0.4193229       -57.91708       0.05490333       -40.28487                0               0                0               0
2.22368                0.4049959       -58.00205       0.05547822       -45.21051                0               0                0               0
2.23026                0.3905922       -58.02683        0.0560238       -50.13967                0               0                0               0
2.23684                0.3761272       -57.98368        0.0565391        -55.0716                0               0                0               0
2.24342                0.3616184       -57.86363       0.05702319       -60.00553                0               0                0               0
2.25                   0.3470857       -57.65615       0.05747519        -64.9407                0               0                0               0
2.25658                0.3325522       -57.34899        0.0578943       -69.87636                0               0                0               0
2.26316                0.3180446       -56.92772       0.05827979       -74.81176                0               0                0               0
2.26974                0.3035947       -56.37546       0.05863099       -79.74615                0               0                0               0
2.27632                0.2892397       -55.67234       0.05894727       -84.67881                0               0                0               0
2.28289                0.2750242       -54.79507       0.05922812       -89.60898                0               0                0               0
2.28947                0.2610016       -53.71641       0.05947307       -94.53593                0               0                0               0