! TOUCHSTONE file generated by CST MICROWAVE STUDIO
! Date and time: Tue Mar 11 13:56:04 2025
! Project name: transverse.cst
! Parameters = {Fracture=1; B=12.5; D=160; F=5; Feed=2.85625; L=100; M=20; R=0.384908; S=2; Theta=0; length=57.125; wave=114.25}
! Header version: 2024
! Port assignment regex: !\s*Touchstone port\s*([0-9]+)\s*=\s*(CST MWS port|CST DES external port|CST DES block port)\s*(.+)\s* \(\"(.*)\"\)(\s*mode\s*([0-9]+))?.*
! Touchstone port assignment:
! Touchstone port 1 = CST MWS port 1 ("")
! Touchstone port 2 = CST MWS port 2 ("")
# GHz S MA R 50
1                      0.9978162       -10.01993      0.000343623       -145.2321                0               0                0               0
1.00658                0.9977141       -10.11026     0.0003566951       -149.2721                0               0                0               0
1.01316                0.9976054       -10.20087     0.0003691616        -153.312                0               0                0               0
1.01974                 0.997491       -10.29175     0.0003809717       -157.3393                0               0                0               0
1.02632                0.9973717       -10.38286      0.000392082       -161.3424                0               0                0               0
1.03289                0.9972485       -10.47419     0.0004024567       -165.3101                0               0                0               0
1.03947                0.9971227       -10.56573     0.0004120691       -169.2315                0               0                0               0
1.04605                0.9969952       -10.65751     0.0004209018       -173.0959                0               0                0               0
1.05263                 0.996867       -10.74953     0.0004289486       -176.8928                0               0                0               0
1.05921                0.9967394       -10.84182      0.000436215        179.3885                0               0                0               0
1.06579                0.9966132       -10.93443     0.0004427196        175.7583                0               0                0               0
1.07237                0.9964893        -11.0274     0.0004484958        172.2274                0               0                0               0
1.07895                0.9963684        -11.1208     0.0004535927        168.8062                0               0                0               0
1.08553                0.9962511       -11.21469     0.0004580766        165.5048                0               0                0               0
1.09211                0.9961379       -11.30915     0.0004620321        162.3333                0               0                0               0
1.09868                 0.996029       -11.40424     0.0004655636        159.3008                0               0                0               0
1.10526                0.9959244       -11.50006     0.0004687958        156.4155                0               0                0               0
1.11184                0.9958238       -11.59668     0.0004718744         153.684                0               0                0               0
1.11842                 0.995727       -11.69417     0.0004749654        151.1111                0               0                0               0
1.125                  0.9956333       -11.79262     0.0004782548        148.6985                0               0                0               0
1.13158                0.9955422        -11.8921      0.000481946         146.445                0               0                0               0
1.13816                0.9954526       -11.99265     0.0004862565         144.345                0               0                0               0
1.14474                0.9953634       -12.09435     0.0004914137        142.3887                0               0                0               0
1.15132                0.9952737       -12.19724     0.0004976482        140.5613                0               0                0               0
1.15789                0.9951819       -12.30134     0.0005051871        138.8432                0               0                0               0
1.16447                 0.995087       -12.40669     0.0005142458        137.2105                0               0                0               0
1.17105                0.9949877       -12.51329     0.0005250198        135.6356                0               0                0               0
1.17763                0.9948825       -12.62115     0.0005376772        134.0886                0               0                0               0
1.18421                0.9947702       -12.73026     0.0005523522        132.5389                0               0                0               0
1.19079                0.9946498        -12.8406     0.0005691406        130.9567                0               0                0               0
1.19737                  0.99452       -12.95213     0.0005880975        129.3143                0               0                0               0
1.20395                0.9943803       -13.06482     0.0006092375        127.5878                0               0                0               0
1.21053                0.9942295       -13.17862     0.0006325363        125.7576                0               0                0               0
1.21711                0.9940673       -13.29348      0.000657935        123.8089                0               0                0               0
1.22368                0.9938933       -13.40935     0.0006853439        121.7317                0               0                0               0
1.23026                0.9937073       -13.52618     0.0007146483        119.5205                0               0                0               0
1.23684                0.9935094        -13.6439     0.0007457132        117.1741                0               0                0               0
1.24342                0.9932998       -13.76248     0.0007783882        114.6943                0               0                0               0
1.25                   0.9930791       -13.88185     0.0008125123        112.0856                0               0                0               0
1.25658                0.9928477       -14.00199     0.0008479165        109.3548                0               0                0               0
1.26316                0.9926063       -14.12286     0.0008844278        106.5098                0               0                0               0
1.26974                0.9923561       -14.24445     0.0009218721        103.5598                0               0                0               0
1.27632                 0.992098       -14.36673     0.0009600755        100.5145                0               0                0               0
1.28289                 0.991833       -14.48971     0.0009988662         97.3837                0               0                0               0
1.28947                0.9915622       -14.61342      0.001038077        94.17752                0               0                0               0
1.29605                0.9912867       -14.73787      0.001077546        90.90588                0               0                0               0
1.30263                0.9910078        -14.8631      0.001117117        87.57848                0               0                0               0
1.30921                0.9907262       -14.98918      0.001156644        84.20479                0               0                0               0
1.31579                0.9904429       -15.11616      0.001195987        80.79395                0               0                0               0
1.32237                0.9901586       -15.24412       0.00123502        77.35479                0               0                0               0
1.32895                 0.989874       -15.37315      0.001273627        73.89579                0               0                0               0
1.33553                0.9895892       -15.50333      0.001311703        70.42513                0               0                0               0
1.34211                0.9893046       -15.63478      0.001349162        66.95067                0               0                0               0
1.34868                  0.98902       -15.76758       0.00138593        63.47997                0               0                0               0
1.35526                0.9887352       -15.90184      0.001421954        60.02028                0               0                0               0
1.36184                0.9884495       -16.03767      0.001457198        56.57859                0               0                0               0
1.36842                0.9881621       -16.17517      0.001491647        53.16158                0               0                0               0
1.375                  0.9878723       -16.31442       0.00152531        49.77561                0               0                0               0
1.38158                0.9875786       -16.45553      0.001558219        46.42677                0               0                0               0
1.38816                0.9872797       -16.59856      0.001590433        43.12073                0               0                0               0
1.39474                0.9869742       -16.74359      0.001622039        39.86281                0               0                0               0
1.40132                0.9866603       -16.89068      0.001653151        36.65783                0               0                0               0
1.40789                0.9863365       -17.03986      0.001683915         33.5101                0               0                0               0
1.41447                0.9860009       -17.19118      0.001714509         30.4233                0               0                0               0
1.42105                0.9856519       -17.34465      0.001745139         27.4004                0               0                0               0
1.42763                0.9852875       -17.50027      0.001776045        24.44354                0               0                0               0
1.43421                0.9849063       -17.65805      0.001807498        21.55394                0               0                0               0
1.44079                0.9845068       -17.81797      0.001839796        18.73177                0               0                0               0
1.44737                0.9840876          -17.98      0.001873268        15.97606                0               0                0               0
1.45395                0.9836472        -18.1441      0.001908261        13.28461                0               0                0               0
1.46053                 0.983185       -18.31023      0.001945147        10.65395                0               0                0               0
1.46711                   0.9827       -18.47836      0.001984309        8.079305                0               0                0               0
1.47368                0.9821919       -18.64843      0.002026141         5.55463                0               0                0               0
1.48026                0.9816599       -18.82039      0.002071036        3.072684                0               0                0               0
1.48684                0.9811043       -18.99421      0.002119386       0.6251768                0               0                0               0
1.49342                0.9805249       -19.16984      0.002171566       -1.797056                0               0                0               0
1.5                    0.9799224       -19.34726      0.002227936       -4.203807                0               0                0               0
1.50658                0.9792969       -19.52645      0.002288826       -6.605229                0               0                0               0
1.51316                0.9786495       -19.70739      0.002354537       -9.011542                0               0                0               0
1.51974                0.9779805        -19.8901      0.002425332       -11.43274                0               0                0               0
1.52632                0.9772909        -20.0746      0.002501432       -13.87832                0               0                0               0
1.53289                0.9765817       -20.26092      0.002583018       -16.35702                0               0                0               0
1.53947                0.9758536       -20.44912      0.002670226       -18.87665                0               0                0               0
1.54605                0.9751075       -20.63927       0.00276315       -21.44391                0               0                0               0
1.55263                 0.974344       -20.83145      0.002861843       -24.06432                0               0                0               0
1.55921                0.9735639       -21.02577      0.002966317        -26.7422                0               0                0               0
1.56579                0.9727671       -21.22234      0.003076551       -29.48065                0               0                0               0
1.57237                0.9719541        -21.4213      0.003192492       -32.28163                0               0                0               0
1.57895                0.9711246       -21.62278       0.00331406       -35.14605                0               0                0               0
1.58553                0.9702783       -21.82694      0.003441152       -38.07386                0               0                0               0
1.59211                0.9694145       -22.03393      0.003573648       -41.06417                0               0                0               0
1.59868                0.9685318        -22.2439      0.003711413        -44.1154                0               0                0               0
1.60526                0.9676293       -22.45702      0.003854303       -47.22537                0               0                0               0
1.61184                0.9667049       -22.67345      0.004002167       -50.39144                0               0                0               0
1.61842                0.9657567       -22.89333      0.004154856       -53.61062                0               0                0               0
1.625                  0.9647824       -23.11682      0.004312221       -56.87964                0               0                0               0
1.63158                0.9637793       -23.34404      0.004474118       -60.19506                0               0                0               0
1.63816                0.9627446       -23.57512      0.004640414       -63.55335                0               0                0               0
1.64474                0.9616751       -23.81017      0.004810986       -66.95093                0               0                0               0
1.65132                0.9605678       -24.04926      0.004985727       -70.38424                0               0                0               0
1.65789                0.9594191       -24.29249      0.005164548       -73.84981                0               0                0               0
1.66447                0.9582258        -24.5399      0.005347379       -77.34422                0               0                0               0
1.67105                0.9569844       -24.79153      0.005534175       -80.86423                0               0                0               0
1.67763                0.9556914       -25.04741      0.005724914       -84.40672                0               0                0               0
1.68421                0.9543437       -25.30752      0.005919602       -87.96878                0               0                0               0
1.69079                0.9529379       -25.57187      0.006118272       -91.54769                0               0                0               0
1.69737                0.9514713       -25.84041      0.006320992       -95.14093                0               0                0               0
1.70395                0.9499408       -26.11311      0.006527857       -98.74621                0               0                0               0
1.71053                0.9483442       -26.38994      0.006739002       -102.3615                0               0                0               0
1.71711                0.9466788       -26.67082      0.006954587        -105.985                0               0                0               0
1.72368                0.9449431       -26.95569      0.007174818        -109.615                0               0                0               0
1.73026                 0.943135       -27.24451      0.007399926       -113.2504                0               0                0               0
1.73684                0.9412532       -27.53722      0.007630184       -116.8901                0               0                0               0
1.74342                0.9392966       -27.83376      0.007865897       -120.5333                0               0                0               0
1.75                   0.9372643       -28.13409      0.008107402       -124.1794                0               0                0               0
1.75658                0.9351555        -28.4382       0.00835507       -127.8282                0               0                0               0
1.76316                0.9329699       -28.74606      0.008609303       -131.4797                0               0                0               0
1.76974                0.9307069       -29.05769      0.008870527        -135.134                0               0                0               0
1.77632                0.9283662       -29.37311      0.009139196       -138.7916                0               0                0               0
1.78289                0.9259477       -29.69238      0.009415782       -142.4533                0               0                0               0
1.78947                0.9234509       -30.01557       0.00970078       -146.1198                0               0                0               0
1.79605                0.9208754       -30.34276      0.009994691       -149.7923                0               0                0               0
1.80263                0.9182208        -30.6741       0.01029803       -153.4719                0               0                0               0
1.80921                 0.915486       -31.00971       0.01061132         -157.16                0               0                0               0
1.81579                0.9126701       -31.34975       0.01093507       -160.8583                0               0                0               0
1.82237                0.9097714       -31.69443       0.01126979       -164.5681                0               0                0               0
1.82895                0.9067881       -32.04393       0.01161599       -168.2913                0               0                0               0
1.83553                0.9037178       -32.39847       0.01197414       -172.0295                0               0                0               0
1.84211                0.9005577       -32.75828        0.0123447       -175.7844                0               0                0               0
1.84868                0.8973044       -33.12359       0.01272812       -179.5578                0               0                0               0
1.85526                0.8939539       -33.49463       0.01312478        176.6486                0               0                0               0
1.86184                0.8905019       -33.87163       0.01353506        172.8333                0               0                0               0
1.86842                0.8869433       -34.25482       0.01395929        168.9946                0               0                0               0
1.875                  0.8832724       -34.64442       0.01439774        165.1311                0               0                0               0
1.88158                0.8794835       -35.04061       0.01485066        161.2415                0               0                0               0
1.88816                0.8755699       -35.44356       0.01531822        157.3245                0               0                0               0
1.89474                0.8715247       -35.85342       0.01580056         153.379                0               0                0               0
1.90132                0.8673407       -36.27031       0.01629776         149.404                0               0                0               0
1.90789                0.8630103       -36.69431       0.01680985        145.3988                0               0                0               0
1.91447                0.8585257       -37.12546       0.01733678        141.3627                0               0                0               0
1.92105                0.8538793       -37.56376       0.01787848        137.2952                0               0                0               0
1.92763                0.8490628       -38.00916       0.01843479        133.1958                0               0                0               0
1.93421                0.8440686       -38.46158       0.01900551        129.0644                0               0                0               0
1.94079                0.8388887       -38.92089       0.01959038        124.9008                0               0                0               0
1.94737                0.8335156        -39.3869       0.02018907         120.705                0               0                0               0
1.95395                0.8279421       -39.85939       0.02080122        116.4772                0               0                0               0
1.96053                0.8221613       -40.33807       0.02142639        112.2177                0               0                0               0
1.96711                0.8161667       -40.82265       0.02206411        107.9267                0               0                0               0
1.97368                0.8099524       -41.31273       0.02271384        103.6047                0               0                0               0
1.98026                 0.803513       -41.80791         0.023375        99.25215                0               0                0               0
1.98684                0.7968436       -42.30777       0.02404697        94.86972                0               0                0               0
1.99342                0.7899402       -42.81179       0.02472907        90.45803                0               0                0               0
2                      0.7827994       -43.31947       0.02542057        86.01777                0               0                0               0
2.00658                0.7754185       -43.83026       0.02612073        81.54969                0               0                0               0
2.01316                0.7677955       -44.34357       0.02682875        77.05458                0               0                0               0
2.01974                 0.759929        -44.8588       0.02754378        72.53327                0               0                0               0
2.02632                0.7518186       -45.37532       0.02826496        67.98661                0               0                0               0
2.03289                 0.743464       -45.89248       0.02899138        63.41547                0               0                0               0
2.03947                0.7348662        -46.4096       0.02972213        58.82072                0               0                0               0
2.04605                0.7260265       -46.92599       0.03045623        54.20328                0               0                0               0
2.05263                0.7169466       -47.44097       0.03119271        49.56405                0               0                0               0
2.05921                0.7076291       -47.95379       0.03193056        44.90394                0               0                0               0
2.06579                0.6980767       -48.46372       0.03266876        40.22385                0               0                0               0
2.07237                0.6882926          -48.97       0.03340628         35.5247                0               0                0               0
2.07895                0.6782804       -49.47186       0.03414205         30.8074                0               0                0               0
2.08553                 0.668044       -49.96849       0.03487502        26.07283                0               0                0               0
2.09211                0.6575873       -50.45905       0.03560411        21.32189                0               0                0               0
2.09868                0.6469147       -50.94268       0.03632825        16.55547                0               0                0               0
2.10526                0.6360307       -51.41847       0.03704635        11.77444                0               0                0               0
2.11184                0.6249395       -51.88546       0.03775733        6.979663                0               0                0               0
2.11842                0.6136458       -52.34261       0.03846012        2.171984                0               0                0               0
2.125                  0.6021542        -52.7888       0.03915365       -2.647754                0               0                0               0
2.13158                0.5904694       -53.22288       0.03983684       -7.478726                0               0                0               0
2.13816                0.5785961       -53.64349       0.04050865       -12.32011                0               0                0               0
2.14474                0.5665392       -54.04923       0.04116803       -17.17112                0               0                0               0
2.15132                0.5543035        -54.4385       0.04181397       -22.03094                0               0                0               0
2.15789                0.5418942       -54.80953       0.04244546        -26.8988                0               0                0               0
2.16447                0.5293168       -55.16034       0.04306152       -31.77393                0               0                0               0
2.17105                0.5165768       -55.48874       0.04366118       -36.65558                0               0                0               0
2.17763                0.5036806       -55.79219       0.04424352       -41.54298                0               0                0               0
2.18421                0.4906347        -56.0679       0.04480763       -46.43541                0               0                0               0
2.19079                0.4774467       -56.31266       0.04535265       -51.33213                0               0                0               0
2.19737                0.4641249       -56.52284       0.04587773       -56.23243                0               0                0               0
2.20395                0.4506787       -56.69432       0.04638207       -61.13559                0               0                0               0
2.21053                0.4371187        -56.8224       0.04686492        -66.0409                0               0                0               0
2.21711                0.4234571       -56.90174       0.04732555       -70.94767                0               0                0               0
2.22368                0.4097078       -56.92623       0.04776328        -75.8552                0               0                0               0
2.23026                0.3958869       -56.88888       0.04817747       -80.76281                0               0                0               0
2.23684                0.3820127       -56.78175       0.04856754       -85.66981                0               0                0               0
2.24342                0.3681066        -56.5957       0.04893295       -90.57553                0               0                0               0
2.25                    0.354193       -56.32033       0.04927321       -95.47931                0               0                0               0
2.25658                0.3403003        -55.9437       0.04958788       -100.3805                0               0                0               0
2.26316                0.3264612        -55.4522       0.04987657       -105.2783                0               0                0               0
2.26974                0.3127136       -54.83031       0.05013894       -110.1722                0               0                0               0
2.27632                 0.299101       -54.06038       0.05037472       -115.0615                0               0                0               0
2.28289                0.2856743       -53.12243       0.05058369       -119.9456                0               0                0               0
2.28947                 0.272492       -51.99408       0.05076569       -124.8237                0               0                0               0