! TOUCHSTONE file generated by CST MICROWAVE STUDIO
! Date and time: Tue Mar 11 13:56:40 2025
! Project name: transverse.cst
! Parameters = {Fracture=5; B=10; D=160; F=25; Feed=2.85625; L=100; M=10; R=0.384908; S=1; Theta=90; length=57.125; wave=114.25}
! Header version: 2024
! Port assignment regex: !\s*Touchstone port\s*([0-9]+)\s*=\s*(CST MWS port|CST DES external port|CST DES block port)\s*(.+)\s* \(\"(.*)\"\)(\s*mode\s*([0-9]+))?.*
! Touchstone port assignment:
! Touchstone port 1 = CST MWS port 1 ("")
! Touchstone port 2 = CST MWS port 2 ("")
# GHz S MA R 50
1                      0.9976387       -9.752846     0.0003617028        -158.174                0               0                0               0
1.00658                0.9975721       -9.839063     0.0003642778       -161.7452                0               0                0               0
1.01316                0.9975066       -9.925936      0.000366146       -165.1417                0               0                0               0
1.01974                0.9974419       -10.01351     0.0003673997       -168.3477                0               0                0               0
1.02632                0.9973775       -10.10181     0.0003681564        -171.347                0               0                0               0
1.03289                0.9973129       -10.19088     0.0003685615       -174.1242                0               0                0               0
1.03947                0.9972478       -10.28074     0.0003687912       -176.6651                0               0                0               0
1.04605                0.9971813       -10.37143      0.000369053       -178.9582                0               0                0               0
1.05263                0.9971128       -10.46296      0.000369587        179.0035                0               0                0               0
1.05921                0.9970419       -10.55535     0.0003706643        177.2211                0               0                0               0
1.06579                0.9969677       -10.64861     0.0003725825        175.6876                0               0                0               0
1.07237                0.9968895       -10.74275      0.000375659         174.386                0               0                0               0
1.07895                0.9968068       -10.83775     0.0003802203         173.288                0               0                0               0
1.08553                0.9967188       -10.93362     0.0003865885         172.354                0               0                0               0
1.09211                0.9966249       -11.03034     0.0003950651        171.5344                0               0                0               0
1.09868                0.9965249       -11.12791     0.0004059163         170.772                0               0                0               0
1.10526                 0.996418       -11.22629      0.000419358        170.0065                0               0                0               0
1.11184                 0.996304       -11.32546     0.0004355477         169.179                0               0                0               0
1.11842                0.9961826       -11.42541     0.0004545796        168.2366                0               0                0               0
1.125                  0.9960536       -11.52611     0.0004764868        167.1354                0               0                0               0
1.13158                 0.995917       -11.62753     0.0005012466        165.8427                0               0                0               0
1.13816                0.9957729       -11.72964     0.0005287907        164.3371                0               0                0               0
1.14474                0.9956214       -11.83242     0.0005590142        162.6079                0               0                0               0
1.15132                0.9954626       -11.93586     0.0005917862        160.6533                0               0                0               0
1.15789                 0.995297       -12.03994     0.0006269578        158.4785                0               0                0               0
1.16447                0.9951249       -12.14463     0.0006643696        156.0936                0               0                0               0
1.17105                0.9949468       -12.24995     0.0007038566         153.512                0               0                0               0
1.17763                0.9947632       -12.35587      0.000745252        150.7489                0               0                0               0
1.18421                0.9945746       -12.46242       0.00078839        147.8206                0               0                0               0
1.19079                0.9943814        -12.5696     0.0008331072        144.7431                0               0                0               0
1.19737                0.9941843       -12.67742     0.0008792437        141.5323                0               0                0               0
1.20395                 0.993984       -12.78592     0.0009266439        138.2032                0               0                0               0
1.21053                0.9937807       -12.89512      0.000975157        134.7698                0               0                0               0
1.21711                0.9935747       -13.00505      0.001024636        131.2453                0               0                0               0
1.22368                0.9933667       -13.11576      0.001074941        127.6418                0               0                0               0
1.23026                0.9931568       -13.22729      0.001125936        123.9704                0               0                0               0
1.23684                0.9929452        -13.3397      0.001177492        120.2413                0               0                0               0
1.24342                0.9927319       -13.45302      0.001229483        116.4638                0               0                0               0
1.25                   0.9925169       -13.56731      0.001281792        112.6465                0               0                0               0
1.25658                   0.9923       -13.68264      0.001334309        108.7974                0               0                0               0
1.26316                0.9920808       -13.79904      0.001386931        104.9235                0               0                0               0
1.26974                0.9918593       -13.91657      0.001439562        101.0316                0               0                0               0
1.27632                0.9916346       -14.03528      0.001492116        97.12773                0               0                0               0
1.28289                0.9914064       -14.15522      0.001544516        93.21764                0               0                0               0
1.28947                0.9911738       -14.27642      0.001596695        89.30656                0               0                0               0
1.29605                0.9909364       -14.39893      0.001648598        85.39934                0               0                0               0
1.30263                0.9906933       -14.52277       0.00170018        81.50049                0               0                0               0
1.30921                0.9904436       -14.64797       0.00175141        77.61417                0               0                0               0
1.31579                0.9901865       -14.77455      0.001802271        73.74424                0               0                0               0
1.32237                0.9899214       -14.90252       0.00185276        69.89426                0               0                0               0
1.32895                0.9896473       -15.03188      0.001902886        66.06747                0               0                0               0
1.33553                0.9893634       -15.16265      0.001952679        62.26683                0               0                0               0
1.34211                0.9890694       -15.29481       0.00200218          58.495                0               0                0               0
1.34868                0.9887644       -15.42836      0.002051451        54.75433                0               0                0               0
1.35526                0.9884479       -15.56328      0.002100567        51.04682                0               0                0               0
1.36184                0.9881196       -15.69956      0.002149623        47.37418                0               0                0               0
1.36842                 0.987779        -15.8372       0.00219873        43.73775                0               0                0               0
1.375                  0.9874262       -15.97617      0.002248016        40.13848                0               0                0               0
1.38158                0.9870609       -16.11645      0.002297625        36.57695                0               0                0               0
1.38816                0.9866834       -16.25804      0.002347717        33.05335                0               0                0               0
1.39474                0.9862937       -16.40092      0.002398466        29.56742                0               0                0               0
1.40132                0.9858919        -16.5451      0.002450059        26.11849                0               0                0               0
1.40789                0.9854786       -16.69057      0.002502694        22.70544                0               0                0               0
1.41447                0.9850543       -16.83735      0.002556578        19.32673                0               0                0               0
1.42105                0.9846191       -16.98545      0.002611927        15.98038                0               0                0               0
1.42763                0.9841739       -17.13488       0.00266896        12.66401                0               0                0               0
1.43421                0.9837189        -17.2857      0.002727897        9.374868                0               0                0               0
1.44079                0.9832549       -17.43793      0.002788959        6.109836                0               0                0               0
1.44737                0.9827823       -17.59163      0.002852361        2.865515                0               0                0               0
1.45395                0.9823015       -17.74685      0.002918312      -0.3617385                0               0                0               0
1.46053                0.9818127       -17.90367       0.00298701       -3.575749                0               0                0               0
1.46711                0.9813164       -18.06217      0.003058641       -6.780452                0               0                0               0
1.47368                0.9808126       -18.22241      0.003133375       -9.979824                0               0                0               0
1.48026                0.9803013        -18.3845      0.003211367       -13.17781                0               0                0               0
1.48684                0.9797823       -18.54852      0.003292747       -16.37825                0               0                0               0
1.49342                0.9792556       -18.71458       0.00337763       -19.58481                0               0                0               0
1.5                    0.9787204       -18.88277      0.003466105       -22.80094                0               0                0               0
1.50658                0.9781761        -19.0532      0.003558237        -26.0298                0               0                0               0
1.51316                0.9776219       -19.22596      0.003654073       -29.27422                0               0                0               0
1.51974                 0.977057       -19.40115      0.003753633       -32.53668                0               0                0               0
1.52632                0.9764799       -19.57888      0.003856915       -35.81927                0               0                0               0
1.53289                0.9758895       -19.75923      0.003963899       -39.12369                0               0                0               0
1.53947                0.9752844       -19.94228      0.004074543       -42.45125                0               0                0               0
1.54605                0.9746631       -20.12813      0.004188787       -45.80285                0               0                0               0
1.55263                0.9740239       -20.31683      0.004306555       -49.17902                0               0                0               0
1.55921                0.9733652       -20.50846      0.004427759       -52.57994                0               0                0               0
1.56579                0.9726852       -20.70307      0.004552296       -56.00543                0               0                0               0
1.57237                0.9719821       -20.90072      0.004680058       -59.45504                0               0                0               0
1.57895                0.9712543       -21.10144      0.004810928         -62.928                0               0                0               0
1.58553                0.9705001       -21.30527      0.004944786       -66.42331                0               0                0               0
1.59211                0.9697177       -21.51225      0.005081509       -69.93974                0               0                0               0
1.59868                0.9689055       -21.72238      0.005220979       -73.47592                0               0                0               0
1.60526                0.9680622       -21.93569       0.00536308       -77.03028                0               0                0               0
1.61184                0.9671862       -22.15221      0.005507704       -80.60116                0               0                0               0
1.61842                0.9662765       -22.37193      0.005654752       -84.18678                0               0                0               0
1.625                  0.9653316       -22.59488      0.005804138       -87.78531                0               0                0               0
1.63158                0.9643507       -22.82107      0.005955791       -91.39489                0               0                0               0
1.63816                0.9633327       -23.05053      0.006109658       -95.01362                0               0                0               0
1.64474                0.9622769       -23.28327      0.006265705       -98.63965                0               0                0               0
1.65132                0.9611826       -23.51933      0.006423923       -102.2711                0               0                0               0
1.65789                0.9600489       -23.75875      0.006584327       -105.9062                0               0                0               0
1.66447                0.9588754       -24.00157      0.006746956       -109.5433                0               0                0               0
1.67105                0.9576614       -24.24787      0.006911881       -113.1807                0               0                0               0
1.67763                0.9564064       -24.49771      0.007079206       -116.8169                0               0                0               0
1.68421                0.9551096       -24.75116      0.007249061       -120.4506                0               0                0               0
1.69079                0.9537703       -25.00833      0.007421616       -124.0805                0               0                0               0
1.69737                0.9523879       -25.26934      0.007597072       -127.7055                0               0                0               0
1.70395                0.9509612       -25.53429      0.007775666       -131.3248                0               0                0               0
1.71053                0.9494892       -25.80333      0.007957672       -134.9378                0               0                0               0
1.71711                0.9479706       -26.07659      0.008143398       -138.5438                0               0                0               0
1.72368                0.9464036       -26.35422      0.008333186       -142.1428                0               0                0               0
1.73026                0.9447865        -26.6364      0.008527413       -145.7346                0               0                0               0
1.73684                0.9431172       -26.92328      0.008726489       -149.3194                0               0                0               0
1.74342                0.9413932       -27.21505      0.008930851       -152.8977                0               0                0               0
1.75                   0.9396117       -27.51187      0.009140966       -156.4703                0               0                0               0
1.75658                0.9377698       -27.81391      0.009357323       -160.0379                0               0                0               0
1.76316                 0.935864       -28.12136      0.009580434       -163.6019                0               0                0               0
1.76974                0.9338906       -28.43437      0.009810824       -167.1635                0               0                0               0
1.77632                0.9318456       -28.75311       0.01004903       -170.7243                0               0                0               0
1.78289                0.9297246       -29.07772        0.0102956       -174.2861                0               0                0               0
1.78947                0.9275231       -29.40835       0.01055108        -177.851                0               0                0               0
1.79605                0.9252362       -29.74512       0.01081601        178.5792                0               0                0               0
1.80263                 0.922859       -30.08815       0.01109092        175.0021                0               0                0               0
1.80921                0.9203862       -30.43752       0.01137632        171.4155                0               0                0               0
1.81579                0.9178124       -30.79331       0.01167272         167.817                0               0                0               0
1.82237                0.9151323       -31.15558       0.01198057        164.2044                0               0                0               0
1.82895                0.9123402       -31.52437       0.01230032        160.5751                0               0                0               0
1.83553                0.9094308        -31.8997       0.01263236         156.927                0               0                0               0
1.84211                0.9063986       -32.28156       0.01297706        153.2578                0               0                0               0
1.84868                 0.903238       -32.66995       0.01333471        149.5654                0               0                0               0
1.85526                0.8999438       -33.06481        0.0137056        145.8478                0               0                0               0
1.86184                 0.896511       -33.46612       0.01408992         142.103                0               0                0               0
1.86842                0.8929343       -33.87378       0.01448784        138.3294                0               0                0               0
1.875                  0.8892089       -34.28773       0.01489947        134.5255                0               0                0               0
1.88158                0.8853301       -34.70787       0.01532484        130.6899                0               0                0               0
1.88816                0.8812939       -35.13411       0.01576394        126.8215                0               0                0               0
1.89474                0.8770956       -35.56632        0.0162167        122.9192                0               0                0               0
1.90132                0.8727314       -36.00441       0.01668301        118.9824                0               0                0               0
1.90789                0.8681975       -36.44825       0.01716266        115.0103                0               0                0               0
1.91447                0.8634903       -36.89772       0.01765542        111.0027                0               0                0               0
1.92105                0.8586065       -37.35269       0.01816098        106.9593                0               0                0               0
1.92763                0.8535427       -37.81307       0.01867901        102.8799                0               0                0               0
1.93421                0.8482958       -38.27872        0.0192091         98.7647                0               0                0               0
1.94079                0.8428628       -38.74954       0.01975079        94.61389                0               0                0               0
1.94737                0.8372406       -39.22541       0.02030357        90.42779                0               0                0               0
1.95395                0.8314263       -39.70624       0.02086692        86.20687                0               0                0               0
1.96053                0.8254169       -40.19192       0.02144022        81.95167                0               0                0               0
1.96711                0.8192094       -40.68236       0.02202286        77.66284                0               0                0               0
1.97368                0.8128006       -41.17744       0.02261415         73.3411                0               0                0               0
1.98026                0.8061874       -41.67708       0.02321339        68.98723                0               0                0               0
1.98684                0.7993663       -42.18117       0.02381983        64.60208                0               0                0               0
1.99342                0.7923338       -42.68959        0.0244327        60.18654                0               0                0               0
2                      0.7850862       -43.20222        0.0250512        55.74154                0               0                0               0
2.00658                0.7776196        -43.7189       0.02567448        51.26803                0               0                0               0
2.01316                  0.76993       -44.23948        0.0263017        46.76699                0               0                0               0
2.01974                0.7620131       -44.76377       0.02693196        42.23943                0               0                0               0
2.02632                0.7538644       -45.29152       0.02756438        37.68634                0               0                0               0
2.03289                0.7454797       -45.82248       0.02819803        33.10876                0               0                0               0
2.03947                0.7368543       -46.35632       0.02883197        28.50768                0               0                0               0
2.04605                0.7279836       -46.89266       0.02946527        23.88413                0               0                0               0
2.05263                0.7188631       -47.43108       0.03009697        19.23912                0               0                0               0
2.05921                0.7094883       -47.97103       0.03072609        14.57366                0               0                0               0
2.06579                 0.699855       -48.51196       0.03135168        9.888716                0               0                0               0
2.07237                0.6899593       -49.05313       0.03197275        5.185291                0               0                0               0
2.07895                0.6797975       -49.59377       0.03258833       0.4643488                0               0                0               0
2.08553                0.6693666       -50.13299       0.03319744       -4.273157                0               0                0               0
2.09211                0.6586638       -50.66972       0.03379912       -9.026284                0               0                0               0
2.09868                0.6476874        -51.2028        0.0343924        -13.7941                0               0                0               0
2.10526                0.6364364       -51.73093       0.03497632       -18.57571                0               0                0               0
2.11184                0.6249105        -52.2526       0.03554995       -23.37021                0               0                0               0
2.11842                0.6131105       -52.76616       0.03611234       -28.17672                0               0                0               0
2.125                  0.6010385       -53.26972       0.03666258       -32.99437                0               0                0               0
2.13158                0.5886976       -53.76123       0.03719977       -37.82232                0               0                0               0
2.13816                0.5760925       -54.23834       0.03772303       -42.65972                0               0                0               0
2.14474                0.5632291       -54.69851        0.0382315       -47.50575                0               0                0               0
2.15132                0.5501153       -55.13886       0.03872435       -52.35961                0               0                0               0
2.15789                0.5367603       -55.55621       0.03920077        -57.2205                0               0                0               0
2.16447                0.5231752       -55.94705       0.03965997       -62.08762                0               0                0               0
2.17105                 0.509373       -56.30748       0.04010122       -66.96021                0               0                0               0
2.17763                0.4953689       -56.63315       0.04052379        -71.8375                0               0                0               0
2.18421                0.4811798       -56.91926       0.04092699       -76.71873                0               0                0               0
2.19079                0.4668252       -57.16045       0.04131017       -81.60315                0               0                0               0
2.19737                0.4523268        -57.3508       0.04167273       -86.49002                0               0                0               0
2.20395                0.4377088       -57.48369        0.0420141       -91.37861                0               0                0               0
2.21053                 0.422998       -57.55177       0.04233373        -96.2682                0               0                0               0
2.21711                0.4082242       -57.54684       0.04263115        -101.158                0               0                0               0
2.22368                0.3934198       -57.45977       0.04290591       -106.0474                0               0                0               0
2.23026                 0.378621       -57.28035       0.04315759       -110.9357                0               0                0               0
2.23684                 0.363867       -56.99724       0.04338586        -115.822                0               0                0               0
2.24342                0.3492012        -56.5978        0.0435904       -120.7058                0               0                0               0
2.25                   0.3346712       -56.06798       0.04377096       -125.5862                0               0                0               0
2.25658                0.3203293        -55.3923       0.04392732       -130.4627                0               0                0               0
2.26316                0.3062329       -54.55368       0.04405933       -135.3344                0               0                0               0
2.26974                0.2924455       -53.53359       0.04416687       -140.2006                0               0                0               0
2.27632                0.2790366       -52.31212       0.04424989       -145.0608                0               0                0               0
2.28289                0.2660828       -50.86834       0.04430838        -149.914                0               0                0               0
2.28947                0.2536682       -49.18088        0.0443424       -154.7597                0               0                0               0