! TOUCHSTONE file generated by CST MICROWAVE STUDIO
! Date and time: Tue Mar 11 13:57:03 2025
! Project name: transverse.cst
! Parameters = {Fracture=5; B=12.5; D=160; F=15; Feed=2.85625; L=100; M=30; R=0.384908; S=1; Theta=90; length=57.125; wave=114.25}
! Header version: 2024
! Port assignment regex: !\s*Touchstone port\s*([0-9]+)\s*=\s*(CST MWS port|CST DES external port|CST DES block port)\s*(.+)\s* \(\"(.*)\"\)(\s*mode\s*([0-9]+))?.*
! Touchstone port assignment:
! Touchstone port 1 = CST MWS port 1 ("")
! Touchstone port 2 = CST MWS port 2 ("")
# GHz S MA R 50
1                      0.9974726       -9.757073     0.0004961088        174.6333                0               0                0               0
1.0066                 0.9973969        -9.84286     0.0004933143        168.6866                0               0                0               0
1.0132                 0.9973236       -9.929246      0.000488393        162.8347                0               0                0               0
1.0198                 0.9972526       -10.01628     0.0004813022        157.0854                0               0                0               0
1.0264                 0.9971838       -10.10403     0.0004720099        151.4491                0               0                0               0
1.033                  0.9971165       -10.19252     0.0004604964        145.9397                0               0                0               0
1.0396                 0.9970504       -10.28182     0.0004467563        140.5754                0               0                0               0
1.0462                 0.9969847       -10.37195     0.0004308012        135.3804                0               0                0               0
1.05281                0.9969187       -10.46296      0.000412663        130.3869                0               0                0               0
1.05941                0.9968518       -10.55488     0.0003923994        125.6385                0               0                0               0
1.06601                0.9967829       -10.64773     0.0003701021        121.1947                0               0                0               0
1.07261                0.9967113       -10.74152     0.0003459093        117.1381                0               0                0               0
1.07921                 0.996636       -10.83626      0.000320026        113.5862                0               0                0               0
1.08581                0.9965561       -10.93196     0.0002927583        110.7088                0               0                0               0
1.09241                0.9964709       -11.02859     0.0002645722        108.7553                0               0                0               0
1.09901                0.9963795       -11.12616     0.0002361964        108.0948                0               0                0               0
1.10561                0.9962813       -11.22463      0.000208802        109.2605                0               0                0               0
1.11221                0.9961755       -11.32399     0.0001842862         112.951                0               0                0               0
1.11881                0.9960617       -11.42419     0.0001655906        119.8119                0               0                0               0
1.12541                0.9959396       -11.52521     0.0001565809        129.7052                0               0                0               0
1.13201                0.9958088       -11.62701     0.0001605893        140.8304                0               0                0               0
1.13861                0.9956692       -11.72955     0.0001781981        150.4569                0               0                0               0
1.14521                0.9955211       -11.83279     0.0002071509        157.0014                0               0                0               0
1.15182                0.9953642        -11.9367     0.0002443866        160.4812                0               0                0               0
1.15842                0.9951994       -12.04124     0.0002874363        161.5761                0               0                0               0
1.16502                0.9950267       -12.14638      0.000334623        160.9695                0               0                0               0
1.17162                0.9948468        -12.2521     0.0003848431        159.1732                0               0                0               0
1.17822                0.9946603       -12.35839     0.0004373458        156.5394                0               0                0               0
1.18482                 0.994468       -12.46524     0.0004915894        153.3071                0               0                0               0
1.19142                0.9942707       -12.57264     0.0005471563        149.6395                0               0                0               0
1.19802                0.9940691       -12.68061     0.0006037033        145.6503                0               0                0               0
1.20462                0.9938641       -12.78916      0.000660934        141.4205                0               0                0               0
1.21122                0.9936565       -12.89832      0.000718581        137.0093                0               0                0               0
1.21782                0.9934472       -13.00812     0.0007763959        132.4605                0               0                0               0
1.22442                0.9932367       -13.11862     0.0008341432        127.8078                0               0                0               0
1.23102                0.9930256       -13.22986     0.0008915969        123.0772                0               0                0               0
1.23762                0.9928145        -13.3419     0.0009485381        118.2893                0               0                0               0
1.24422                0.9926036       -13.45481      0.001004754        113.4609                0               0                0               0
1.25083                0.9923932       -13.56865      0.001060037         108.606                0               0                0               0
1.25743                0.9921834       -13.68351      0.001114187        103.7362                0               0                0               0
1.26403                0.9919739       -13.79946      0.001167008        98.86164                0               0                0               0
1.27063                0.9917646       -13.91657      0.001218314        93.99123                0               0                0               0
1.27723                 0.991555       -14.03492      0.001267926        89.13301                0               0                0               0
1.28383                0.9913445       -14.15457      0.001315675        84.29436                0               0                0               0
1.29043                0.9911322       -14.27561      0.001361403        79.48221                0               0                0               0
1.29703                0.9909173       -14.39808      0.001404965        74.70321                0               0                0               0
1.30363                0.9906987       -14.52205       0.00144623        69.96382                0               0                0               0
1.31023                0.9904753       -14.64755      0.001485085        65.27043                0               0                0               0
1.31683                0.9902459       -14.77463      0.001521435        60.62944                0               0                0               0
1.32343                0.9900093       -14.90332      0.001555208        56.04737                0               0                0               0
1.33003                 0.989764       -15.03364      0.001586354        51.53084                0               0                0               0
1.33663                0.9895093       -15.16559      0.001614853        47.08668                0               0                0               0
1.34323                0.9892434       -15.29917      0.001640712        42.72193                0               0                0               0
1.34984                0.9889655       -15.43438      0.001663974        38.44387                0               0                0               0
1.35644                0.9886743        -15.5712      0.001684719        34.25998                0               0                0               0
1.36304                0.9883692        -15.7096      0.001703067        30.17795                0               0                0               0
1.36964                 0.988049       -15.84957      0.001719184        26.20559                0               0                0               0
1.37624                0.9877136       -15.99105      0.001733286        22.35072                0               0                0               0
1.38284                0.9873621       -16.13401      0.001745641        18.62106                0               0                0               0
1.38944                0.9869942       -16.27843      0.001756574        15.02398                0               0                0               0
1.39604                0.9866102       -16.42425      0.001766471        11.56626                0               0                0               0
1.40264                0.9862097       -16.57146      0.001775779        8.253703                0               0                0               0
1.40924                0.9857933       -16.72001      0.001785009        5.090793                0               0                0               0
1.41584                0.9853611       -16.86988      0.001794735        2.080151                0               0                0               0
1.42244                 0.984914       -17.02106       0.00180559      -0.7779656                0               0                0               0
1.42904                0.9844522       -17.17355      0.001818258       -3.486211                0               0                0               0
1.43564                0.9839768       -17.32734      0.001833465       -6.050652                0               0                0               0
1.44224                0.9834884       -17.48246      0.001851969       -8.481174                0               0                0               0
1.44884                0.9829879       -17.63893      0.001874534        -10.7917                0               0                0               0
1.45545                0.9824761        -17.7968      0.001901916       -13.00013                0               0                0               0
1.46205                0.9819539       -17.95612      0.001934839       -15.12806                0               0                0               0
1.46865                0.9814219       -18.11695      0.001973966           -17.2                0               0                0               0
1.47525                0.9808807       -18.27938      0.002019886       -19.24247                0               0                0               0
1.48185                0.9803307        -18.4435      0.002073085       -21.28276                0               0                0               0
1.48845                0.9797723       -18.60941      0.002133941       -23.34767                0               0                0               0
1.49505                0.9792056       -18.77721      0.002202709       -25.46225                0               0                0               0
1.50165                0.9786303       -18.94702      0.002279527       -27.64875                0               0                0               0
1.50825                0.9780462       -19.11897      0.002364414        -29.9259                0               0                0               0
1.51485                0.9774525       -19.29317      0.002457282       -32.30844                0               0                0               0
1.52145                0.9768485       -19.46976       0.00255795       -34.80704                0               0                0               0
1.52805                0.9762329       -19.64885      0.002666155       -37.42847                0               0                0               0
1.53465                0.9756046       -19.83056      0.002781571       -40.17595                0               0                0               0
1.54125                0.9749615         -20.015      0.002903818       -43.04962                0               0                0               0
1.54785                0.9743023       -20.20228      0.003032481       -46.04714                0               0                0               0
1.55446                0.9736248        -20.3925      0.003167114       -49.16417                0               0                0               0
1.56106                0.9729267       -20.58573      0.003307259        -52.3949                0               0                0               0
1.56766                0.9722058       -20.78205      0.003452443       -55.73247                0               0                0               0
1.57426                0.9714597       -20.98152      0.003602194       -59.16936                0               0                0               0
1.58086                 0.970686       -21.18417       0.00375604       -62.69763                0               0                0               0
1.58746                0.9698823       -21.39004      0.003913518       -66.30921                0               0                0               0
1.59406                0.9690463       -21.59914      0.004074175       -69.99603                0               0                0               0
1.60066                0.9681754       -21.81147       0.00423757       -73.75017                0               0                0               0
1.60726                0.9672676       -22.02702      0.004403281       -77.56393                0               0                0               0
1.61386                0.9663207       -22.24577      0.004570903       -81.42989                0               0                0               0
1.62046                0.9653331       -22.46767      0.004740054       -85.34093                0               0                0               0
1.62706                0.9643029        -22.6927      0.004910377       -89.29029                0               0                0               0
1.63366                0.9632287       -22.92081      0.005081541       -93.27152                0               0                0               0
1.64026                0.9621095       -23.15194      0.005253245       -97.27853                0               0                0               0
1.64686                0.9609441       -23.38605      0.005425219       -101.3055                0               0                0               0
1.65347                0.9597321       -23.62309      0.005597231       -105.3471                0               0                0               0
1.66007                 0.958473       -23.86302      0.005769084        -109.398                0               0                0               0
1.66667                0.9571665       -24.10581      0.005940625       -113.4535                0               0                0               0
1.67327                0.9558128       -24.35144      0.006111745       -117.5089                0               0                0               0
1.67987                0.9544121        -24.5999      0.006282385         -121.56                0               0                0               0
1.68647                0.9529645       -24.85119      0.006452531       -125.6028                0               0                0               0
1.69307                0.9514709       -25.10535      0.006622234       -129.6337                0               0                0               0
1.69967                0.9499316        -25.3624      0.006791592       -133.6491                0               0                0               0
1.70627                0.9483473       -25.62242      0.006960769       -137.6459                0               0                0               0
1.71287                0.9467182        -25.8855      0.007129993       -141.6215                0               0                0               0
1.71947                0.9450451       -26.15174      0.007299557       -145.5732                0               0                0               0
1.72607                0.9433282       -26.42126       0.00746982        -149.499                0               0                0               0
1.73267                0.9415675       -26.69421      0.007641213       -153.3971                0               0                0               0
1.73927                 0.939763       -26.97077      0.007814232       -157.2663                0               0                0               0
1.74587                0.9379141       -27.25111      0.007989447       -161.1056                0               0                0               0
1.75248                  0.93602       -27.53545       0.00816749       -164.9146                0               0                0               0
1.75908                0.9340799       -27.82398      0.008349067       -168.6932                0               0                0               0
1.76568                0.9320918       -28.11695      0.008534936       -172.4421                0               0                0               0
1.77228                0.9300541       -28.41458      0.008725921       -176.1623                0               0                0               0
1.77888                0.9279642        -28.7171       0.00892289       -179.8554                0               0                0               0
1.78548                0.9258193       -29.02477      0.009126761        176.4766                0               0                0               0
1.79208                0.9236162       -29.33782      0.009338479        172.8309                0               0                0               0
1.79868                0.9213512       -29.65647      0.009559021        169.2046                0               0                0               0
1.80528                0.9190201       -29.98096      0.009789375        165.5939                0               0                0               0
1.81188                0.9166186       -30.31149       0.01003053        161.9949                0               0                0               0
1.81848                0.9141417       -30.64827       0.01028346        158.4034                0               0                0               0
1.82508                0.9115844       -30.99147       0.01054913        154.8145                0               0                0               0
1.83168                0.9089414       -31.34126       0.01082846        151.2235                0               0                0               0
1.83828                 0.906207       -31.69779       0.01112232        147.6255                0               0                0               0
1.84488                0.9033756       -32.06117       0.01143153        144.0155                0               0                0               0
1.85149                0.9004413       -32.43152       0.01175682        140.3885                0               0                0               0
1.85809                0.8973983        -32.8089       0.01209888        136.7399                0               0                0               0
1.86469                0.8942407       -33.19338       0.01245827        133.0649                0               0                0               0
1.87129                0.8909628       -33.58501        0.0128355        129.3594                0               0                0               0
1.87789                0.8875588       -33.98379       0.01323095        125.6194                0               0                0               0
1.88449                0.8840231       -34.38974       0.01364492        121.8415                0               0                0               0
1.89109                0.8803505       -34.80286        0.0140776        118.0225                0               0                0               0
1.89769                0.8765354       -35.22312       0.01452908        114.1598                0               0                0               0
1.90429                0.8725731        -35.6505       0.01499936        110.2511                0               0                0               0
1.91089                0.8684587       -36.08495       0.01548834        106.2948                0               0                0               0
1.91749                0.8641876       -36.52645       0.01599581        102.2894                0               0                0               0
1.92409                0.8597553       -36.97496       0.01652149        98.23419                0               0                0               0
1.93069                0.8551576       -37.43045         0.017065        94.12848                0               0                0               0
1.93729                0.8503904       -37.89288        0.0176259        89.97215                0               0                0               0
1.94389                0.8454497       -38.36225       0.01820364        85.76532                0               0                0               0
1.9505                 0.8403316       -38.83853       0.01879762        81.50841                0               0                0               0
1.9571                 0.8350321       -39.32174       0.01940717        77.20209                0               0                0               0
1.9637                 0.8295473       -39.81188       0.02003156        72.84723                0               0                0               0
1.9703                 0.8238732         -40.309       0.02066999        68.44487                0               0                0               0
1.9769                 0.8180055       -40.81312       0.02132162         63.9962                0               0                0               0
1.9835                 0.8119401       -41.32429       0.02198554        59.50253                0               0                0               0
1.9901                 0.8056721       -41.84258       0.02266082        54.96527                0               0                0               0
1.9967                 0.7991967       -42.36806       0.02334647        50.38589                0               0                0               0
2.0033                 0.7925086        -42.9008       0.02404148        45.76591                0               0                0               0
2.0099                 0.7856022       -43.44087       0.02474479        41.10687                0               0                0               0
2.0165                 0.7784716       -43.98833        0.0254553        36.41036                0               0                0               0
2.0231                 0.7711101       -44.54323       0.02617191        31.67794                0               0                0               0
2.0297                 0.7635111       -45.10563       0.02689348        26.91117                0               0                0               0
2.0363                 0.7556674        -45.6755       0.02761883        22.11162                0               0                0               0
2.0429                 0.7475712       -46.25286       0.02834681        17.28081                0               0                0               0
2.0495                 0.7392148        -46.8376        0.0290762        12.42023                0               0                0               0
2.05611                0.7305899       -47.42963        0.0298058        7.531363                0               0                0               0
2.06271                0.7216879       -48.02878        0.0305344        2.615635                0               0                0               0
2.06931                0.7125006       -48.63477       0.03126075       -2.325557                0               0                0               0
2.07591                0.7030191       -49.24728       0.03198365       -7.290856                0               0                0               0
2.08251                0.6932351        -49.8659       0.03270184       -12.27895                0               0                0               0
2.08911                  0.68314       -50.49008       0.03341409       -17.28856                0               0                0               0
2.09571                 0.672726       -51.11917       0.03411919       -22.31844                0               0                0               0
2.10231                0.6619855        -51.7524        0.0348159       -27.36742                0               0                0               0
2.10891                0.6509113       -52.38883       0.03550301       -32.43433                0               0                0               0
2.11551                0.6394973       -53.02736       0.03617931       -37.51804                0               0                0               0
2.12211                 0.627738       -53.66674       0.03684361       -42.61749                0               0                0               0
2.12871                0.6156292       -54.30548       0.03749475       -47.73162                0               0                0               0
2.13531                0.6031675       -54.94189       0.03813156       -52.85942                0               0                0               0
2.14191                0.5903512       -55.57405       0.03875291       -57.99991                0               0                0               0
2.14851                0.5771799       -56.19974       0.03935768       -63.15213                0               0                0               0
2.15512                 0.563655       -56.81647        0.0399448       -68.31518                0               0                0               0
2.16172                0.5497796       -57.42138       0.04051322       -73.48814                0               0                0               0
2.16832                0.5355586       -58.01125       0.04106189       -78.67015                0               0                0               0
2.17492                0.5209992       -58.58243       0.04158983       -83.86035                0               0                0               0
2.18152                0.5061108       -59.13077       0.04209608       -89.05794                0               0                0               0
2.18812                 0.490905       -59.65154       0.04257974        -94.2621                0               0                0               0
2.19472                0.4753963       -60.13941       0.04303991       -99.47204                0               0                0               0
2.20132                0.4596015       -60.58823       0.04347576        -104.687                0               0                0               0
2.20792                0.4435407       -60.99102       0.04388651       -109.9062                0               0                0               0
2.21452                0.4272368       -61.33975       0.04427139       -115.1289                0               0                0               0
2.22112                0.4107162       -61.62516       0.04462971       -120.3544                0               0                0               0
2.22772                0.3940091       -61.83653       0.04496083        -125.582                0               0                0               0
2.23432                0.3771497       -61.96141       0.04526413       -130.8109                0               0                0               0
2.24092                0.3601768       -61.98527       0.04553909       -136.0404                0               0                0               0
2.24752                0.3431344       -61.89108       0.04578519       -141.2699                0               0                0               0
2.25413                0.3260724       -61.65878       0.04600201       -146.4986                0               0                0               0
2.26073                0.3090482       -61.26466       0.04618917       -151.7259                0               0                0               0
2.26733                0.2921273       -60.68067       0.04634634       -156.9511                0               0                0               0
2.27393                0.2753855       -59.87357       0.04647327       -162.1734                0               0                0               0
2.28053                0.2589114       -58.80401       0.04656973       -167.3922                0               0                0               0
2.28713                0.2428088       -57.42568       0.04663559       -172.6068                0               0                0               0
2.29373                0.2272008       -55.68476       0.04667077       -177.8165                0               0                0               0