! TOUCHSTONE file generated by CST MICROWAVE STUDIO
! Date and time: Tue Mar 11 13:56:59 2025
! Project name: transverse.cst
! Parameters = {Fracture=1; B=12.5; D=160; F=15; Feed=2.85625; L=100; M=10; R=0.384908; S=1; Theta=90; length=57.125; wave=114.25}
! Header version: 2024
! Port assignment regex: !\s*Touchstone port\s*([0-9]+)\s*=\s*(CST MWS port|CST DES external port|CST DES block port)\s*(.+)\s* \(\"(.*)\"\)(\s*mode\s*([0-9]+))?.*
! Touchstone port assignment:
! Touchstone port 1 = CST MWS port 1 ("")
! Touchstone port 2 = CST MWS port 2 ("")
# GHz S MA R 50
1                       0.997843       -10.03251     0.0003406925       -144.2644                0               0                0               0
1.00658                0.9977476       -10.12263     0.0003492563        -148.772                0               0                0               0
1.01316                0.9976471       -10.21308     0.0003566097       -153.2133                0               0                0               0
1.01974                0.9975424       -10.30383     0.0003627026        -157.574                0               0                0               0
1.02632                0.9974343       -10.39487     0.0003674959       -161.8391                0               0                0               0
1.03289                0.9973237       -10.48622     0.0003709641       -165.9918                0               0                0               0
1.03947                0.9972115       -10.57787     0.0003730971       -170.0135                0               0                0               0
1.04605                0.9970986       -10.66985     0.0003739033       -173.8835                0               0                0               0
1.05263                0.9969858       -10.76218     0.0003734135       -177.5782                0               0                0               0
1.05921                0.9968739       -10.85491     0.0003716852        178.9291                0               0                0               0
1.06579                0.9967636       -10.94808     0.0003688078        175.6685                0               0                0               0
1.07237                0.9966554       -11.04174     0.0003649088        172.6737                0               0                0               0
1.07895                0.9965499       -11.13596     0.0003601617        169.9819                0               0                0               0
1.08553                0.9964472       -11.23079     0.0003547943        167.6331                0               0                0               0
1.09211                0.9963476       -11.32631     0.0003490979        165.6685                0               0                0               0
1.09868                0.9962509       -11.42259     0.0003434358        164.1272                0               0                0               0
1.10526                0.9961568       -11.51969     0.0003382505        163.0415                0               0                0               0
1.11184                0.9960651       -11.61769     0.0003340637        162.4294                0               0                0               0
1.11842                 0.995975       -11.71664     0.0003314682        162.2858                0               0                0               0
1.125                   0.995886       -11.81661     0.0003311048        162.5726                0               0                0               0
1.13158                0.9957969       -11.91765     0.0003336219        163.2119                0               0                0               0
1.13816                0.9957071       -12.01981     0.0003396213        164.0867                0               0                0               0
1.14474                0.9956154       -12.12311     0.0003495992        165.0499                0               0                0               0
1.15132                0.9955205        -12.2276     0.0003638981        165.9441                0               0                0               0
1.15789                0.9954213       -12.33328     0.0003826828        166.6238                0               0                0               0
1.16447                0.9953168       -12.44016     0.0004059471         166.974                0               0                0               0
1.17105                0.9952056       -12.54824     0.0004335443        166.9195                0               0                0               0
1.17763                0.9950868        -12.6575     0.0004652285        166.4245                0               0                0               0
1.18421                0.9949593       -12.76794     0.0005006958        165.4858                0               0                0               0
1.19079                0.9948222        -12.8795     0.0005396167        164.1225                0               0                0               0
1.19737                0.9946746       -12.99217     0.0005816585        162.3677                0               0                0               0
1.20395                0.9945161       -13.10589     0.0006264987        160.2609                0               0                0               0
1.21053                0.9943462       -13.22062     0.0006738307        157.8434                0               0                0               0
1.21711                0.9941645       -13.33631     0.0007233662        155.1551                0               0                0               0
1.22368                 0.993971       -13.45291     0.0007748353        152.2331                0               0                0               0
1.23026                0.9937659       -13.57037     0.0008279844        149.1109                0               0                0               0
1.23684                0.9935491       -13.68866     0.0008825748        145.8185                0               0                0               0
1.24342                0.9933215       -13.80773     0.0009383812        142.3822                0               0                0               0
1.25                   0.9930834       -13.92755     0.0009951898         138.825                0               0                0               0
1.25658                0.9928356       -14.04809      0.001052798        135.1673                0               0                0               0
1.26316                0.9925789       -14.16934      0.001111013         131.427                0               0                0               0
1.26974                0.9923143       -14.29129      0.001169652        127.6197                0               0                0               0
1.27632                0.9920425       -14.41394      0.001228543        123.7595                0               0                0               0
1.28289                0.9917647       -14.53733      0.001287523        119.8587                0               0                0               0
1.28947                0.9914819       -14.66147      0.001346442        115.9284                0               0                0               0
1.29605                0.9911947        -14.7864      0.001405162        111.9786                0               0                0               0
1.30263                0.9909043       -14.91217      0.001463556        108.0185                0               0                0               0
1.30921                0.9906111       -15.03885      0.001521515        104.0563                0               0                0               0
1.31579                0.9903158        -15.1665      0.001578943        100.0996                0               0                0               0
1.32237                0.9900189       -15.29521      0.001635765        96.15554                0               0                0               0
1.32895                0.9897205       -15.42505      0.001691924        92.23052                0               0                0               0
1.33553                0.9894207       -15.55611      0.001747383        88.33058                0               0                0               0
1.34211                0.9891194       -15.68847      0.001802131        84.46131                0               0                0               0
1.34868                0.9888161       -15.82224      0.001856182        80.62787                0               0                0               0
1.35526                0.9885102        -15.9575      0.001909574          76.835                0               0                0               0
1.36184                0.9882012       -16.09433      0.001962379        73.08702                0               0                0               0
1.36842                0.9878878        -16.2328      0.002014696        69.38778                0               0                0               0
1.375                  0.9875692         -16.373      0.002066656        65.74066                0               0                0               0
1.38158                0.9872441       -16.51499      0.002118426         62.1485                0               0                0               0
1.38816                 0.986911       -16.65881      0.002170205        58.61354                0               0                0               0
1.39474                0.9865686       -16.80451      0.002222226        55.13739                0               0                0               0
1.40132                0.9862154       -16.95213      0.002274757        51.72093                0               0                0               0
1.40789                0.9858499       -17.10168      0.002328098        48.36426                0               0                0               0
1.41447                0.9854706       -17.25318      0.002382581        45.06664                0               0                0               0
1.42105                0.9850762       -17.40661      0.002438565        41.82642                0               0                0               0
1.42763                0.9846654       -17.56198      0.002496436        38.64105                0               0                0               0
1.43421                0.9842371       -17.71926      0.002556599          35.507                0               0                0               0
1.44079                0.9837901       -17.87841      0.002619474        32.41982                0               0                0               0
1.44737                0.9833237       -18.03942      0.002685491        29.37417                0               0                0               0
1.45395                0.9828374       -18.20224      0.002755081         26.3639                0               0                0               0
1.46053                0.9823305       -18.36682      0.002828672        23.38212                0               0                0               0
1.46711                0.9818029       -18.53315      0.002906678        20.42141                0               0                0               0
1.47368                0.9812545       -18.70118      0.002989491        17.47393                0               0                0               0
1.48026                0.9806856       -18.87087      0.003077481        14.53163                0               0                0               0
1.48684                0.9800966       -19.04222      0.003170981        11.58643                0               0                0               0
1.49342                0.9794879       -19.21519      0.003270287        8.630465                0               0                0               0
1.5                    0.9788602       -19.38981      0.003375651        5.656195                0               0                0               0
1.50658                0.9782144       -19.56607      0.003487279         2.65663                0               0                0               0
1.51316                0.9775513         -19.744      0.003605327      -0.3745522                0               0                0               0
1.51974                0.9768718       -19.92364      0.003729901       -3.442897                0               0                0               0
1.52632                0.9761766       -20.10505       0.00386106       -6.553106                0               0                0               0
1.53289                0.9754667        -20.2883      0.003998812       -9.708988                0               0                0               0
1.53947                0.9747427       -20.47348       0.00414312       -12.91346                0               0                0               0
1.54605                0.9740053       -20.66068      0.004293903       -16.16859                0               0                0               0
1.55263                0.9732549       -20.85005      0.004451041       -19.47557                0               0                0               0
1.55921                0.9724915       -21.04168      0.004614375       -22.83489                0               0                0               0
1.56579                0.9717152       -21.23574      0.004783716       -26.24628                0               0                0               0
1.57237                0.9709256       -21.43236      0.004958844       -29.70892                0               0                0               0
1.57895                0.9701219       -21.63171      0.005139515       -33.22142                0               0                0               0
1.58553                0.9693032       -21.83393      0.005325466       -36.78193                0               0                0               0
1.59211                0.9684685       -22.03919      0.005516417       -40.38825                0               0                0               0
1.59868                0.9676158       -22.24765      0.005712074       -44.03786                0               0                0               0
1.60526                0.9667432       -22.45946      0.005912137       -47.72801                0               0                0               0
1.61184                0.9658487       -22.67475        0.0061163       -51.45575                0               0                0               0
1.61842                0.9649297       -22.89367      0.006324256       -55.21802                0               0                0               0
1.625                  0.9639835       -23.11635      0.006535702       -59.01165                0               0                0               0
1.63158                0.9630071       -23.34288      0.006750339       -62.83344                0               0                0               0
1.63816                0.9619974       -23.57336      0.006967882       -66.68015                0               0                0               0
1.64474                0.9609513       -23.80787      0.007188057       -70.54858                0               0                0               0
1.65132                0.9598656       -24.04647      0.007410606       -74.43553                0               0                0               0
1.65789                0.9587368       -24.28919      0.007635296       -78.33787                0               0                0               0
1.66447                0.9575618       -24.53606      0.007861917       -82.25253                0               0                0               0
1.67105                0.9563374       -24.78709      0.008090284       -86.17655                0               0                0               0
1.67763                0.9550606       -25.04226      0.008320249       -90.10703                0               0                0               0
1.68421                0.9537284       -25.30156      0.008551695       -94.04121                0               0                0               0
1.69079                0.9523383       -25.56494      0.008784546       -97.97642                0               0                0               0
1.69737                0.9508879       -25.83238      0.009018766       -101.9102                0               0                0               0
1.70395                0.9493751       -26.10381      0.009254367       -105.8401                0               0                0               0
1.71053                0.9477979       -26.37919      0.009491407       -109.7639                0               0                0               0
1.71711                0.9461546       -26.65846      0.009729994       -113.6796                0               0                0               0
1.72368                0.9444444       -26.94157      0.009970296       -117.5853                0               0                0               0
1.73026                0.9426659       -27.22848       0.01021253       -121.4794                0               0                0               0
1.73684                0.9408184       -27.51916       0.01045697       -125.3603                0               0                0               0
1.74342                0.9389014       -27.81359       0.01070395       -129.2269                0               0                0               0
1.75                   0.9369148       -28.11177       0.01095388       -133.0781                0               0                0               0
1.75658                 0.934858       -28.41372       0.01120721       -136.9132                0               0                0               0
1.76316                0.9327312       -28.71947       0.01146445       -140.7317                0               0                0               0
1.76974                0.9305341       -29.02909       0.01172617       -144.5334                0               0                0               0
1.77632                0.9282668       -29.34265       0.01199301       -148.3184                0               0                0               0
1.78289                0.9259288       -29.66029       0.01226564       -152.0869                0               0                0               0
1.78947                0.9235199       -29.98211        0.0125448       -155.8398                0               0                0               0
1.79605                0.9210395       -30.30831       0.01283125       -159.5779                0               0                0               0
1.80263                0.9184866       -30.63904       0.01312582       -163.3025                0               0                0               0
1.80921                0.9158599       -30.97453       0.01342933       -167.0152                0               0                0               0
1.81579                0.9131576         -31.315       0.01374266       -170.7178                0               0                0               0
1.82237                0.9103776        -31.6607       0.01406668       -174.4124                0               0                0               0
1.82895                0.9075172       -32.01186       0.01440228       -178.1012                0               0                0               0
1.83553                 0.904573       -32.36878       0.01475033        178.2131                0               0                0               0
1.84211                0.9015414        -32.7317        0.0151117        174.5279                0               0                0               0
1.84868                0.8984177       -33.10092       0.01548723        170.8404                0               0                0               0
1.85526                0.8951971       -33.47667       0.01587774        167.1476                0               0                0               0
1.86184                0.8918738       -33.85923       0.01628397        163.4466                0               0                0               0
1.86842                0.8884419       -34.24884       0.01670665        159.7343                0               0                0               0
1.875                  0.8848944       -34.64572       0.01714642        156.0079                0               0                0               0
1.88158                0.8812245       -35.05005       0.01760387        152.2643                0               0                0               0
1.88816                0.8774244       -35.46203       0.01807949        148.5008                0               0                0               0
1.89474                0.8734862       -35.88177       0.01857371        144.7148                0               0                0               0
1.90132                0.8694017       -36.30939       0.01908686        140.9039                0               0                0               0
1.90789                0.8651624       -36.74494       0.01961919        137.0656                0               0                0               0
1.91447                0.8607597       -37.18845       0.02017085         133.198                0               0                0               0
1.92105                0.8561849       -37.63988       0.02074189        129.2993                0               0                0               0
1.92763                0.8514294       -38.09917       0.02133228        125.3679                0               0                0               0
1.93421                0.8464848       -38.56621       0.02194188        121.4024                0               0                0               0
1.94079                0.8413429       -39.04083       0.02257047        117.4018                0               0                0               0
1.94737                0.8359953       -39.52282       0.02321771        113.3652                0               0                0               0
1.95395                0.8304347       -40.01192        0.0238832         109.292                0               0                0               0
1.96053                0.8246538       -40.50783       0.02456644        105.1817                0               0                0               0
1.96711                0.8186458       -41.01021       0.02526684        101.0343                0               0                0               0
1.97368                0.8124045       -41.51868       0.02598375        96.84966                0               0                0               0
1.98026                0.8059246       -42.03281       0.02671641        92.62801                0               0                0               0
1.98684                0.7992009       -42.55214       0.02746401        88.36968                0               0                0               0
1.99342                0.7922291       -43.07616       0.02822568        84.07516                0               0                0               0
2                      0.7850058       -43.60436       0.02900046        79.74504                0               0                0               0
2.00658                 0.777528       -44.13618       0.02978735        75.38004                0               0                0               0
2.01316                0.7697935       -44.67102       0.03058529        70.98097                0               0                0               0
2.01974                0.7618006       -45.20829       0.03139316        66.54873                0               0                0               0
2.02632                0.7535485       -45.74733       0.03220981        62.08427                0               0                0               0
2.03289                 0.745037       -46.28751       0.03303403        57.58859                0               0                0               0
2.03947                0.7362665       -46.82813       0.03386458        53.06277                0               0                0               0
2.04605                0.7272378       -47.36849       0.03470018        48.50789                0               0                0               0
2.05263                0.7179523       -47.90786       0.03553952        43.92507                0               0                0               0
2.05921                0.7084119       -48.44551       0.03638128        39.31543                0               0                0               0
2.06579                0.6986191       -48.98066       0.03722411        34.68013                0               0                0               0
2.07237                0.6885764       -49.51249       0.03806661         30.0203                0               0                0               0
2.07895                0.6782872       -50.04018       0.03890742        25.33711                0               0                0               0
2.08553                0.6677546       -50.56283       0.03974513        20.63168                0               0                0               0
2.09211                0.6569824       -51.07951       0.04057834        15.90517                0               0                0               0
2.09868                0.6459746       -51.58926       0.04140563        11.15869                0               0                0               0
2.10526                0.6347353       -52.09101       0.04222561        6.393348                0               0                0               0
2.11184                0.6232689       -52.58364       0.04303686        1.610252                0               0                0               0
2.11842                0.6115799       -53.06594       0.04383799       -3.189522                0               0                0               0
2.125                  0.5996734       -53.53657       0.04462763       -8.004911                0               0                0               0
2.13158                0.5875543       -53.99409        0.0454044       -12.83487                0               0                0               0
2.13816                0.5752281       -54.43691       0.04616696       -17.67836                0               0                0               0
2.14474                0.5627005       -54.86326       0.04691397       -22.53439                0               0                0               0
2.15132                0.5499776       -55.27119       0.04764414       -27.40195                0               0                0               0
2.15789                0.5370661       -55.65851        0.0483562       -32.28008                0               0                0               0
2.16447                0.5239732       -56.02279       0.04904889       -37.16781                0               0                0               0
2.17105                0.5107066       -56.36129       0.04972104       -42.06422                0               0                0               0
2.17763                0.4972752       -56.67094       0.05037145       -46.96836                0               0                0               0
2.18421                0.4836884       -56.94828       0.05099903       -51.87933                0               0                0               0
2.19079                 0.469957       -57.18939       0.05160268       -56.79625                0               0                0               0
2.19737                 0.456093       -57.38984       0.05218137       -61.71821                0               0                0               0
2.20395                0.4421098       -57.54463       0.05273413       -66.64436                0               0                0               0
2.21053                0.4280225       -57.64807       0.05326003       -71.57385                0               0                0               0
2.21711                0.4138482       -57.69369        0.0537582       -76.50581                0               0                0               0
2.22368                0.3996063       -57.67418       0.05422783       -81.43942                0               0                0               0
2.23026                0.3853187       -57.58115       0.05466816       -86.37384                0               0                0               0
2.23684                0.3710101       -57.40509        0.0550785       -91.30825                0               0                0               0
2.24342                 0.356709       -57.13519       0.05545825       -96.24184                0               0                0               0
2.25                   0.3424473       -56.75908       0.05580684       -101.1738                0               0                0               0
2.25658                0.3282617       -56.26272       0.05612377       -106.1033                0               0                0               0
2.26316                 0.314194       -55.63017       0.05640864       -111.0296                0               0                0               0
2.26974                0.3002919       -54.84345        0.0566611       -115.9519                0               0                0               0
2.27632                0.2866101       -53.88226       0.05688089       -120.8693                0               0                0               0
2.28289                0.2732114       -52.72403       0.05706779       -125.7811                0               0                0               0
2.28947                0.2601672       -51.34396       0.05722169       -130.6864                0               0                0               0