! TOUCHSTONE file generated by CST MICROWAVE STUDIO
! Date and time: Tue Mar 11 13:56:36 2025
! Project name: transverse.cst
! Parameters = {Fracture=5; B=10; D=160; F=15; Feed=2.85625; L=100; M=10; R=0.384908; S=2; Theta=90; length=57.125; wave=114.25}
! Header version: 2024
! Port assignment regex: !\s*Touchstone port\s*([0-9]+)\s*=\s*(CST MWS port|CST DES external port|CST DES block port)\s*(.+)\s* \(\"(.*)\"\)(\s*mode\s*([0-9]+))?.*
! Touchstone port assignment:
! Touchstone port 1 = CST MWS port 1 ("")
! Touchstone port 2 = CST MWS port 2 ("")
# GHz S MA R 50
1                      0.9978135       -9.752882       0.00030133       -143.5269                0               0                0               0
1.00658                0.9977306       -9.840868     0.0003111234       -146.7432                0               0                0               0
1.01316                0.9976434       -9.929325     0.0003205851       -149.9387                0               0                0               0
1.01974                0.9975523       -10.01824     0.0003297068       -153.1009                0               0                0               0
1.02632                0.9974577       -10.10761     0.0003384898       -156.2182                0               0                0               0
1.03289                0.9973598       -10.19742     0.0003469464       -159.2795                0               0                0               0
1.03947                0.9972592       -10.28769     0.0003551005       -162.2745                0               0                0               0
1.04605                0.9971563       -10.37842     0.0003629885       -165.1937                0               0                0               0
1.05263                0.9970516       -10.46962       0.00037066       -168.0285                0               0                0               0
1.05921                0.9969453       -10.56132     0.0003781787       -170.7715                0               0                0               0
1.06579                0.9968381       -10.65352     0.0003856228       -173.4166                0               0                0               0
1.07237                0.9967301       -10.74627     0.0003930853       -175.9591                0               0                0               0
1.07895                0.9966217       -10.83959     0.0004006737       -178.3964                0               0                0               0
1.08553                0.9965131       -10.93353     0.0004085096         179.272                0               0                0               0
1.09211                0.9964043        -11.0281     0.0004167271        177.0443                0               0                0               0
1.09868                0.9962956       -11.12336     0.0004254718        174.9155                0               0                0               0
1.10526                0.9961867       -11.21935     0.0004348975        172.8782                0               0                0               0
1.11184                0.9960777        -11.3161     0.0004451635        170.9218                0               0                0               0
1.11842                0.9959684       -11.41367     0.0004564307         169.033                0               0                0               0
1.125                  0.9958581       -11.51208     0.0004688576        167.1958                0               0                0               0
1.13158                0.9957467       -11.61137     0.0004825961        165.3925                0               0                0               0
1.13816                0.9956338       -11.71158     0.0004977867        163.6038                0               0                0               0
1.14474                0.9955188       -11.81275     0.0005145554        161.8101                0               0                0               0
1.15132                 0.995401       -11.91489       0.00053301        159.9919                0               0                0               0
1.15789                0.9952799       -12.01802      0.000553238        158.1309                0               0                0               0
1.16447                 0.995155       -12.12217     0.0005753051        156.2104                0               0                0               0
1.17105                0.9950252       -12.22734     0.0005992547        154.2163                0               0                0               0
1.17763                0.9948903       -12.33355     0.0006251091        152.1367                0               0                0               0
1.18421                0.9947493       -12.44079     0.0006528691        149.9628                0               0                0               0
1.19079                0.9946018       -12.54906     0.0006825174        147.6884                0               0                0               0
1.19737                0.9944474       -12.65835     0.0007140201        145.3099                0               0                0               0
1.20395                0.9942852       -12.76865     0.0007473279        142.8263                0               0                0               0
1.21053                0.9941153       -12.87995     0.0007823803        140.2382                0               0                0               0
1.21711                 0.993937       -12.99222     0.0008191055        137.5481                0               0                0               0
1.22368                0.9937502       -13.10546     0.0008574243        134.7598                0               0                0               0
1.23026                0.9935549       -13.21964     0.0008972512        131.8782                0               0                0               0
1.23684                0.9933509       -13.33475     0.0009384957        128.9088                0               0                0               0
1.24342                0.9931382       -13.45077      0.000981064        125.8577                0               0                0               0
1.25                   0.9929169       -13.56768      0.001024861        122.7313                0               0                0               0
1.25658                0.9926875       -13.68547       0.00106979        119.5361                0               0                0               0
1.26316                  0.99245       -13.80413      0.001115755        116.2787                0               0                0               0
1.26974                 0.992205       -13.92367      0.001162663        112.9655                0               0                0               0
1.27632                0.9919527       -14.04409       0.00121042         109.603                0               0                0               0
1.28289                0.9916937       -14.16538      0.001258939        106.1972                0               0                0               0
1.28947                0.9914285       -14.28758      0.001308134        102.7542                0               0                0               0
1.29605                0.9911573        -14.4107      0.001357926        99.27949                0               0                0               0
1.30263                0.9908807       -14.53476      0.001408239         95.7786                0               0                0               0
1.30921                0.9905992        -14.6598      0.001459008        92.25664                0               0                0               0
1.31579                 0.990313       -14.78586      0.001510171        88.71849                0               0                0               0
1.32237                0.9900226       -14.91298      0.001561677        85.16873                0               0                0               0
1.32895                0.9897281       -15.04122      0.001613484        81.61168                0               0                0               0
1.33553                0.9894297       -15.17063      0.001665558        78.05136                0               0                0               0
1.34211                0.9891273       -15.30125      0.001717876        74.49155                0               0                0               0
1.34868                 0.988821       -15.43316      0.001770427        70.93572                0               0                0               0
1.35526                0.9885106       -15.56642      0.001823213        67.38708                0               0                0               0
1.36184                0.9881957       -15.70108      0.001876247        63.84855                0               0                0               0
1.36842                0.9878763       -15.83721      0.001929554        60.32276                0               0                0               0
1.375                  0.9875513       -15.97486      0.001983173        56.81204                0               0                0               0
1.38158                0.9872206       -16.11409      0.002037159        53.31843                0               0                0               0
1.38816                0.9868833       -16.25497      0.002091578        49.84365                0               0                0               0
1.39474                0.9865389       -16.39753      0.002146511        46.38912                0               0                0               0
1.40132                0.9861863       -16.54183      0.002202051        42.95591                0               0                0               0
1.40789                0.9858246        -16.6879      0.002258307        39.54477                0               0                0               0
1.41447                0.9854532       -16.83578      0.002315398        36.15609                0               0                0               0
1.42105                 0.985071       -16.98552      0.002373456        32.78995                0               0                0               0
1.42763                0.9846773       -17.13712      0.002432624        29.44606                0               0                0               0
1.43421                0.9842709       -17.29062      0.002493054        26.12379                0               0                0               0
1.44079                0.9838513       -17.44603      0.002554906        22.82221                0               0                0               0
1.44737                0.9834175       -17.60337      0.002618346        19.54003                0               0                0               0
1.45395                0.9829688       -17.76265      0.002683547        16.27567                0               0                0               0
1.46053                0.9825044       -17.92387       0.00275068         13.0273                0               0                0               0
1.46711                0.9820239       -18.08704      0.002819922        9.792821                0               0                0               0
1.47368                0.9815268       -18.25218      0.002891446        6.569922                0               0                0               0
1.48026                0.9810125       -18.41929      0.002965419         3.35613                0               0                0               0
1.48684                0.9804808       -18.58837      0.003042007       0.1488421                0               0                0               0
1.49342                0.9799313       -18.75944      0.003121364       -3.054628                0               0                0               0
1.5                    0.9793641       -18.93253      0.003203636       -6.256999                0               0                0               0
1.50658                0.9787787       -19.10764      0.003288956       -9.460975                0               0                0               0
1.51316                0.9781754        -19.2848      0.003377446        -12.6692                0               0                0               0
1.51974                0.9775537       -19.46406      0.003469212       -15.88422                0               0                0               0
1.52632                0.9769141       -19.64544      0.003564346       -19.10841                0               0                0               0
1.53289                0.9762561         -19.829       0.00366292         -22.344                0               0                0               0
1.53947                0.9755799       -20.01479      0.003764993       -25.59299                0               0                0               0
1.54605                0.9748853       -20.20288      0.003870608       -28.85714                0               0                0               0
1.55263                0.9741723       -20.39333      0.003979789       -32.13796                0               0                0               0
1.55921                0.9734405       -20.58622      0.004092543        -35.4367                0               0                0               0
1.56579                0.9726896       -20.78165      0.004208865       -38.75434                0               0                0               0
1.57237                0.9719191       -20.97969      0.004328736       -42.09156                0               0                0               0
1.57895                0.9711286       -21.18045      0.004452121       -45.44883                0               0                0               0
1.58553                0.9703172       -21.38403      0.004578974        -48.8263                0               0                0               0
1.59211                0.9694839       -21.59052      0.004709242       -52.22393                0               0                0               0
1.59868                 0.968628       -21.80005      0.004842864        -55.6414                0               0                0               0
1.60526                0.9677479       -22.01272      0.004979769       -59.07824                0               0                0               0
1.61184                0.9668425       -22.22862      0.005119886       -62.53372                0               0                0               0
1.61842                0.9659101       -22.44788       0.00526314       -66.00701                0               0                0               0
1.625                  0.9649491        -22.6706      0.005409457        -69.4971                0               0                0               0
1.63158                0.9639576       -22.89686      0.005558768       -73.00284                0               0                0               0
1.63816                0.9629334       -23.12679      0.005711005       -76.52303                0               0                0               0
1.64474                0.9618748       -23.36046      0.005866112       -80.05634                0               0                0               0
1.65132                0.9607792       -23.59795      0.006024039        -83.6014                0               0                0               0
1.65789                0.9596446       -23.83936      0.006184748       -87.15681                0               0                0               0
1.66447                0.9584683       -24.08475      0.006348218       -90.72115                0               0                0               0
1.67105                0.9572483       -24.33419      0.006514441         -94.293                0               0                0               0
1.67763                0.9559817       -24.58774      0.006683428       -97.87096                0               0                0               0
1.68421                0.9546663       -24.84545      0.006855215       -101.4537                0               0                0               0
1.69079                0.9532996       -25.10737      0.007029854       -105.0398                0               0                0               0
1.69737                 0.951879       -25.37354      0.007207423       -108.6282                0               0                0               0
1.70395                0.9504023         -25.644      0.007388029       -112.2177                0               0                0               0
1.71053                0.9488669       -25.91878      0.007571801       -115.8072                0               0                0               0
1.71711                0.9472707       -26.19793      0.007758899       -119.3958                0               0                0               0
1.72368                0.9456113       -26.48146      0.007949511       -122.9828                0               0                0               0
1.73026                0.9438866       -26.76941      0.008143854       -126.5675                0               0                0               0
1.73684                0.9420943       -27.06182      0.008342174       -130.1494                0               0                0               0
1.74342                0.9402322       -27.35871      0.008544747       -133.7282                0               0                0               0
1.75                   0.9382984       -27.66013      0.008751878       -137.3038                0               0                0               0
1.75658                0.9362907       -27.96613      0.008963902       -140.8761                0               0                0               0
1.76316                0.9342072       -28.27674      0.009181175       -144.4454                0               0                0               0
1.76974                0.9320455       -28.59203      0.009404083       -148.0121                0               0                0               0
1.77632                0.9298034       -28.91206       0.00963303       -151.5768                0               0                0               0
1.78289                0.9274792        -29.2369      0.009868445       -155.1402                0               0                0               0
1.78947                0.9250701       -29.56663       0.01011077       -158.7033                0               0                0               0
1.79605                0.9225738       -29.90132       0.01036046       -162.2672                0               0                0               0
1.80263                0.9199879       -30.24107       0.01061798       -165.8331                0               0                0               0
1.80921                0.9173093       -30.58598       0.01088381       -169.4024                0               0                0               0
1.81579                0.9145353       -30.93615       0.01115841       -172.9768                0               0                0               0
1.82237                0.9116627       -31.29168       0.01144225       -176.5577                0               0                0               0
1.82895                0.9086882       -31.65268        0.0117358        179.8531                0               0                0               0
1.83553                 0.905608       -32.01926       0.01203951        176.2538                0               0                0               0
1.84211                0.9024184       -32.39152        0.0123538        172.6425                0               0                0               0
1.84868                0.8991152       -32.76957       0.01267907        169.0175                0               0                0               0
1.85526                 0.895694        -33.1535       0.01301573        165.3768                0               0                0               0
1.86184                0.8921502       -33.54341        0.0133641        161.7187                0               0                0               0
1.86842                0.8884789       -33.93937       0.01372452        158.0415                0               0                0               0
1.875                   0.884675       -34.34146       0.01409726        154.3433                0               0                0               0
1.88158                0.8807333       -34.74972       0.01448255        150.6227                0               0                0               0
1.88816                0.8766482       -35.16419       0.01488059         146.878                0               0                0               0
1.89474                 0.872414       -35.58489       0.01529152         143.108                0               0                0               0
1.90132                0.8680251       -36.01182       0.01571544        139.3114                0               0                0               0
1.90789                0.8634757       -36.44493        0.0161524         135.487                0               0                0               0
1.91447                0.8587597       -36.88419        0.0166024        131.6339                0               0                0               0
1.92105                0.8538714       -37.32952       0.01706537        127.7512                0               0                0               0
1.92763                 0.848805       -37.78081       0.01754121        123.8384                0               0                0               0
1.93421                0.8435546       -38.23791       0.01802976        119.8947                0               0                0               0
1.94079                0.8381146       -38.70068        0.0185308        115.9199                0               0                0               0
1.94737                0.8324798       -39.16892       0.01904408        111.9136                0               0                0               0
1.95395                0.8266448        -39.6424       0.01956928        107.8758                0               0                0               0
1.96053                0.8206047       -40.12087       0.02010604        103.8065                0               0                0               0
1.96711                0.8143547       -40.60404       0.02065394        99.70574                0               0                0               0
1.97368                0.8078907       -41.09159       0.02121253        95.57375                0               0                0               0
1.98026                0.8012087       -41.58319       0.02178132        91.41089                0               0                0               0
1.98684                0.7943051       -42.07845       0.02235975        87.21755                0               0                0               0
1.99342                0.7871767       -42.57698       0.02294725        82.99424                0               0                0               0
2                      0.7798208       -43.07833       0.02354319        78.74151                0               0                0               0
2.00658                0.7722352       -43.58204       0.02414692           74.46                0               0                0               0
2.01316                 0.764418       -44.08763       0.02475774         70.1504                0               0                0               0
2.01974                 0.756368       -44.59457       0.02537493        65.81344                0               0                0               0
2.02632                0.7480842       -45.10232       0.02599773        61.44989                0               0                0               0
2.03289                0.7395661       -45.61029       0.02662538        57.06056                0               0                0               0
2.03947                0.7308138       -46.11788       0.02725704        52.64629                0               0                0               0
2.04605                 0.721828       -46.62445       0.02789191        48.20794                0               0                0               0
2.05263                0.7126092       -47.12932       0.02852914        43.74637                0               0                0               0
2.05921                 0.703159       -47.63181       0.02916784        39.26249                0               0                0               0
2.06579                0.6934791       -48.13116       0.02980715        34.75718                0               0                0               0
2.07237                0.6835715       -48.62658       0.03044617        30.23135                0               0                0               0
2.07895                0.6734388       -49.11725       0.03108399        25.68591                0               0                0               0
2.08553                0.6630839       -49.60231        0.0317197        21.12174                0               0                0               0
2.09211                  0.65251        -50.0808       0.03235237        16.53976                0               0                0               0
2.09868                0.6417207       -50.55174       0.03298109        11.94086                0               0                0               0
2.10526                0.6307198       -51.01405       0.03360492        7.325922                0               0                0               0
2.11184                0.6195117        -51.4666       0.03422296        2.695831                0               0                0               0
2.11842                 0.608101       -51.90815       0.03483427       -1.948543                0               0                0               0
2.125                  0.5964925       -52.33736       0.03543794       -6.606339                0               0                0               0
2.13158                0.5846917       -52.75278       0.03603306       -11.27671                0               0                0               0
2.13816                0.5727043       -53.15281       0.03661875       -15.95881                0               0                0               0
2.14474                0.5605365       -53.53572       0.03719412       -20.65182                0               0                0               0
2.15132                0.5481949        -53.8996        0.0377583       -25.35492                0               0                0               0
2.15789                0.5356867       -54.24236       0.03831044       -30.06731                0               0                0               0
2.16447                0.5230195       -54.56166       0.03884971       -34.78819                0               0                0               0
2.17105                0.5102019       -54.85493       0.03937531       -39.51678                0               0                0               0
2.17763                 0.497243        -55.1193       0.03988644       -44.25232                0               0                0               0
2.18421                0.4841526       -55.35161       0.04038235       -48.99405                0               0                0               0
2.19079                0.4709418        -55.5483       0.04086232       -53.74121                0               0                0               0
2.19737                0.4576223        -55.7054       0.04132563       -58.49308                0               0                0               0
2.20395                0.4442073       -55.81846       0.04177162       -63.24892                0               0                0               0
2.21053                0.4307114       -55.88248       0.04219964       -68.00801                0               0                0               0
2.21711                0.4171505        -55.8919        0.0426091       -72.76966                0               0                0               0
2.22368                0.4035424       -55.84037       0.04299942       -77.53316                0               0                0               0
2.23026                0.3899067       -55.72083       0.04337008       -82.29781                0               0                0               0
2.23684                0.3762656       -55.52526       0.04372059       -87.06294                0               0                0               0
2.24342                0.3626437       -55.24466       0.04405051       -91.82787                0               0                0               0
2.25                   0.3490683       -54.86888       0.04435942       -96.59193                0               0                0               0
2.25658                0.3355706       -54.38646       0.04464696       -101.3545                0               0                0               0
2.26316                0.3221853       -53.78457        0.0449128       -106.1148                0               0                0               0
2.26974                0.3089517        -53.0488       0.04515668       -110.8723                0               0                0               0
2.27632                0.2959143       -52.16311       0.04537837       -115.6263                0               0                0               0
2.28289                0.2831233       -51.10975       0.04557767       -120.3763                0               0                0               0
2.28947                0.2706357       -49.86929       0.04575445       -125.1214                0               0                0               0