! TOUCHSTONE file generated by CST MICROWAVE STUDIO
! Date and time: Tue Mar 11 13:58:22 2025
! Project name: transverse.cst
! Parameters = {Fracture=5; B=12.5; D=160; F=15; Feed=2.85625; L=100; M=30; R=0.384908; S=1; Theta=270; length=57.125; wave=114.25}
! Header version: 2024
! Port assignment regex: !\s*Touchstone port\s*([0-9]+)\s*=\s*(CST MWS port|CST DES external port|CST DES block port)\s*(.+)\s* \(\"(.*)\"\)(\s*mode\s*([0-9]+))?.*
! Touchstone port assignment:
! Touchstone port 1 = CST MWS port 1 ("")
! Touchstone port 2 = CST MWS port 2 ("")
# GHz S MA R 50
1                      0.9974724       -9.757079     0.0004961274         174.634                0               0                0               0
1.0066                 0.9973966       -9.842866     0.0004933325        168.6874                0               0                0               0
1.0132                 0.9973234        -9.92925     0.0004884107        162.8356                0               0                0               0
1.0198                 0.9972525       -10.01629     0.0004813194        157.0864                0               0                0               0
1.0264                 0.9971835       -10.10403     0.0004720265        151.4502                0               0                0               0
1.033                  0.9971164       -10.19253     0.0004605123        145.9409                0               0                0               0
1.0396                 0.9970501       -10.28182     0.0004467716        140.5767                0               0                0               0
1.0462                 0.9969845       -10.37196     0.0004308159        135.3818                0               0                0               0
1.05281                0.9969186       -10.46297      0.000412677        130.3884                0               0                0               0
1.05941                0.9968517       -10.55489     0.0003924127        125.6402                0               0                0               0
1.06601                0.9967828       -10.64773     0.0003701148        121.1964                0               0                0               0
1.07261                0.9967112       -10.74152     0.0003459214          117.14                0               0                0               0
1.07921                0.9966359       -10.83627     0.0003200376        113.5883                0               0                0               0
1.08581                 0.996556       -10.93196     0.0002927695         110.711                0               0                0               0
1.09241                0.9964708        -11.0286     0.0002645831        108.7578                0               0                0               0
1.09901                0.9963794       -11.12616     0.0002362074        108.0974                0               0                0               0
1.10561                0.9962812       -11.22464     0.0002088133        109.2632                0               0                0               0
1.11221                0.9961754       -11.32399      0.000184298        112.9537                0               0                0               0
1.11881                0.9960616        -11.4242     0.0001656033        119.8142                0               0                0               0
1.12541                0.9959395       -11.52522     0.0001565943        129.7066                0               0                0               0
1.13201                0.9958087       -11.62702     0.0001606029        140.8308                0               0                0               0
1.13861                0.9956692       -11.72956     0.0001782114        150.4565                0               0                0               0
1.14521                0.9955209        -11.8328     0.0002071637        157.0005                0               0                0               0
1.15182                0.9953642       -11.93671     0.0002443989        160.4802                0               0                0               0
1.15842                0.9951992       -12.04125     0.0002874482        161.5752                0               0                0               0
1.16502                0.9950265       -12.14639     0.0003346347        160.9688                0               0                0               0
1.17162                0.9948466       -12.25211     0.0003848548        159.1726                0               0                0               0
1.17822                0.9946601        -12.3584     0.0004373575         156.539                0               0                0               0
1.18482                0.9944679       -12.46525     0.0004916011        153.3068                0               0                0               0
1.19142                0.9942705       -12.57265      0.000547168        149.6393                0               0                0               0
1.19802                0.9940689       -12.68062     0.0006037152        145.6502                0               0                0               0
1.20462                 0.993864       -12.78917     0.0006609461        141.4205                0               0                0               0
1.21122                0.9936563       -12.89833      0.000718593        137.0093                0               0                0               0
1.21782                 0.993447       -13.00813      0.000776408        132.4606                0               0                0               0
1.22442                0.9932364       -13.11863     0.0008341552         127.808                0               0                0               0
1.23102                0.9930253       -13.22986     0.0008916089        123.0774                0               0                0               0
1.23762                0.9928141        -13.3419     0.0009485498        118.2895                0               0                0               0
1.24422                0.9926033       -13.45481      0.001004765        113.4612                0               0                0               0
1.25083                0.9923929       -13.56866      0.001060048        108.6063                0               0                0               0
1.25743                0.9921831       -13.68352      0.001114198        103.7366                0               0                0               0
1.26403                0.9919736       -13.79946      0.001167019        98.86202                0               0                0               0
1.27063                0.9917643       -13.91657      0.001218325        93.99164                0               0                0               0
1.27723                0.9915547       -14.03492      0.001267937        89.13344                0               0                0               0
1.28383                0.9913442       -14.15458      0.001315685        84.29481                0               0                0               0
1.29043                0.9911318       -14.27561      0.001361413        79.48268                0               0                0               0
1.29703                0.9909169       -14.39808      0.001404974         74.7037                0               0                0               0
1.30363                0.9906984       -14.52204      0.001446238        69.96432                0               0                0               0
1.31023                 0.990475       -14.64755      0.001485093        65.27095                0               0                0               0
1.31683                0.9902456       -14.77463      0.001521443        60.62998                0               0                0               0
1.32343                0.9900089       -14.90332      0.001555215        56.04792                0               0                0               0
1.33003                0.9897638       -15.03363      0.001586361         51.5314                0               0                0               0
1.33663                0.9895089       -15.16558      0.001614859        47.08725                0               0                0               0
1.34323                0.9892432       -15.29916      0.001640718        42.72252                0               0                0               0
1.34984                0.9889651       -15.43437       0.00166398        38.44446                0               0                0               0
1.35644                0.9886741       -15.57119      0.001684724        34.26058                0               0                0               0
1.36304                0.9883689        -15.7096      0.001703072        30.17856                0               0                0               0
1.36964                0.9880489       -15.84956      0.001719189        26.20621                0               0                0               0
1.37624                0.9877134       -15.99104       0.00173329        22.35135                0               0                0               0
1.38284                0.9873619       -16.13401      0.001745645         18.6217                0               0                0               0
1.38944                0.9869942       -16.27842      0.001756578        15.02463                0               0                0               0
1.39604                0.9866099       -16.42424      0.001766474        11.56691                0               0                0               0
1.40264                0.9862097       -16.57145      0.001775782        8.254358                0               0                0               0
1.40924                0.9857932          -16.72      0.001785013        5.091452                0               0                0               0
1.41584                0.9853611       -16.86987      0.001794739        2.080812                0               0                0               0
1.42244                0.9849139       -17.02106      0.001805594      -0.7773037                0               0                0               0
1.42904                0.9844522       -17.17354      0.001818262       -3.485551                0               0                0               0
1.43564                0.9839768       -17.32734      0.001833471       -6.049997                0               0                0               0
1.44224                0.9834884       -17.48246      0.001851974       -8.480527                0               0                0               0
1.44884                0.9829879       -17.63893       0.00187454       -10.79106                0               0                0               0
1.45545                0.9824761        -17.7968      0.001901923       -12.99951                0               0                0               0
1.46205                0.9819539       -17.95612      0.001934846       -15.12746                0               0                0               0
1.46865                0.9814219       -18.11695      0.001973975       -17.19941                0               0                0               0
1.47525                0.9808807       -18.27938      0.002019895       -19.24191                0               0                0               0
1.48185                0.9803307        -18.4435      0.002073095       -21.28223                0               0                0               0
1.48845                0.9797723       -18.60941      0.002133951       -23.34717                0               0                0               0
1.49505                0.9792055       -18.77721       0.00220272       -25.46178                0               0                0               0
1.50165                0.9786303       -18.94703      0.002279539       -27.64831                0               0                0               0
1.50825                0.9780461       -19.11897      0.002364426       -29.92549                0               0                0               0
1.51485                0.9774525       -19.29318      0.002457294       -32.30807                0               0                0               0
1.52145                0.9768483       -19.46976      0.002557962       -34.80671                0               0                0               0
1.52805                0.9762328       -19.64885      0.002666168       -37.42817                0               0                0               0
1.53465                0.9756044       -19.83056      0.002781584       -40.17567                0               0                0               0
1.54125                0.9749614         -20.015      0.002903831       -43.04937                0               0                0               0
1.54785                0.9743022       -20.20229      0.003032494       -46.04691                0               0                0               0
1.55446                0.9736246        -20.3925      0.003167128       -49.16397                0               0                0               0
1.56106                0.9729264       -20.58574      0.003307272       -52.39472                0               0                0               0
1.56766                0.9722055       -20.78206      0.003452456       -55.73232                0               0                0               0
1.57426                0.9714595       -20.98152      0.003602207       -59.16922                0               0                0               0
1.58086                0.9706857       -21.18418      0.003756053       -62.69751                0               0                0               0
1.58746                0.9698821       -21.39005      0.003913531       -66.30911                0               0                0               0
1.59406                 0.969046       -21.59915      0.004074187       -69.99595                0               0                0               0
1.60066                0.9681751       -21.81148      0.004237582       -73.75011                0               0                0               0
1.60726                0.9672672       -22.02702      0.004403292       -77.56388                0               0                0               0
1.61386                0.9663204       -22.24577      0.004570914       -81.42984                0               0                0               0
1.62046                0.9653328       -22.46767      0.004740065        -85.3409                0               0                0               0
1.62706                0.9643026        -22.6927      0.004910388       -89.29027                0               0                0               0
1.63366                0.9632284        -22.9208      0.005081552       -93.27151                0               0                0               0
1.64026                0.9621092       -23.15193      0.005253255       -97.27853                0               0                0               0
1.64686                0.9609439       -23.38604      0.005425229       -101.3055                0               0                0               0
1.65347                0.9597319       -23.62308       0.00559724       -105.3471                0               0                0               0
1.66007                0.9584727       -23.86302      0.005769092        -109.398                0               0                0               0
1.66667                0.9571663       -24.10581      0.005940633       -113.4535                0               0                0               0
1.67327                0.9558125       -24.35143      0.006111753       -117.5089                0               0                0               0
1.67987                0.9544117       -24.59989      0.006282391       -121.5601                0               0                0               0
1.68647                0.9529644       -24.85119      0.006452539       -125.6029                0               0                0               0
1.69307                0.9514706       -25.10534      0.006622239       -129.6337                0               0                0               0
1.69967                0.9499313       -25.36239      0.006791597       -133.6491                0               0                0               0
1.70627                 0.948347       -25.62241      0.006960774        -137.646                0               0                0               0
1.71287                 0.946718       -25.88549      0.007129998       -141.6215                0               0                0               0
1.71947                0.9450449       -26.15172      0.007299562       -145.5732                0               0                0               0
1.72607                 0.943328       -26.42124      0.007469824        -149.499                0               0                0               0
1.73267                0.9415673        -26.6942      0.007641216       -153.3972                0               0                0               0
1.73927                0.9397627       -26.97076      0.007814234       -157.2664                0               0                0               0
1.74587                 0.937914        -27.2511      0.007989449       -161.1057                0               0                0               0
1.75248                0.9360199       -27.53543      0.008167492       -164.9146                0               0                0               0
1.75908                0.9340797       -27.82397      0.008349068       -168.6933                0               0                0               0
1.76568                0.9320917       -28.11693      0.008534938       -172.4422                0               0                0               0
1.77228                 0.930054       -28.41456      0.008725922       -176.1624                0               0                0               0
1.77888                0.9279641       -28.71709      0.008922891       -179.8554                0               0                0               0
1.78548                0.9258193       -29.02476      0.009126762        176.4765                0               0                0               0
1.79208                0.9236162        -29.3378       0.00933848        172.8309                0               0                0               0
1.79868                0.9213512       -29.65646      0.009559022        169.2045                0               0                0               0
1.80528                0.9190201       -29.98095      0.009789375        165.5939                0               0                0               0
1.81188                0.9166185       -30.31149       0.01003053        161.9949                0               0                0               0
1.81848                0.9141417       -30.64826       0.01028346        158.4033                0               0                0               0
1.82508                0.9115844       -30.99147       0.01054913        154.8145                0               0                0               0
1.83168                0.9089413       -31.34126       0.01082846        151.2235                0               0                0               0
1.83828                 0.906207       -31.69779       0.01112232        147.6255                0               0                0               0
1.84488                0.9033755       -32.06117       0.01143153        144.0155                0               0                0               0
1.85149                0.9004413       -32.43152       0.01175682        140.3885                0               0                0               0
1.85809                0.8973983        -32.8089       0.01209888        136.7398                0               0                0               0
1.86469                0.8942408       -33.19338       0.01245828        133.0649                0               0                0               0
1.87129                0.8909628       -33.58501        0.0128355        129.3594                0               0                0               0
1.87789                0.8875588       -33.98379       0.01323095        125.6194                0               0                0               0
1.88449                0.8840231       -34.38975       0.01364492        121.8415                0               0                0               0
1.89109                0.8803504       -34.80286        0.0140776        118.0225                0               0                0               0
1.89769                0.8765354       -35.22312       0.01452908        114.1598                0               0                0               0
1.90429                0.8725731       -35.65049       0.01499937        110.2511                0               0                0               0
1.91089                0.8684587       -36.08496       0.01548834        106.2948                0               0                0               0
1.91749                0.8641875       -36.52646       0.01599581        102.2894                0               0                0               0
1.92409                0.8597552       -36.97496        0.0165215        98.23419                0               0                0               0
1.93069                0.8551575       -37.43045       0.01706501        94.12848                0               0                0               0
1.93729                0.8503902       -37.89289       0.01762591        89.97215                0               0                0               0
1.94389                0.8454495       -38.36225       0.01820365        85.76532                0               0                0               0
1.9505                 0.8403313       -38.83853       0.01879763        81.50842                0               0                0               0
1.9571                 0.8350318       -39.32174       0.01940718         77.2021                0               0                0               0
1.9637                  0.829547       -39.81188       0.02003157        72.84724                0               0                0               0
1.9703                 0.8238729         -40.309          0.02067        68.44487                0               0                0               0
1.9769                 0.8180054       -40.81311       0.02132163         63.9962                0               0                0               0
1.9835                 0.8119398       -41.32429       0.02198555        59.50254                0               0                0               0
1.9901                 0.8056718       -41.84258       0.02266083        54.96528                0               0                0               0
1.9967                 0.7991965       -42.36806       0.02334649         50.3859                0               0                0               0
2.0033                 0.7925083        -42.9008        0.0240415        45.76592                0               0                0               0
2.0099                  0.785602       -43.44086        0.0247448        41.10689                0               0                0               0
2.0165                 0.7784713       -43.98832       0.02545532        36.41037                0               0                0               0
2.0231                 0.7711099       -44.54323       0.02617192        31.67795                0               0                0               0
2.0297                 0.7635108       -45.10562       0.02689349        26.91119                0               0                0               0
2.0363                 0.7556672        -45.6755       0.02761885        22.11163                0               0                0               0
2.0429                  0.747571       -46.25284       0.02834682        17.28082                0               0                0               0
2.0495                 0.7392145       -46.83759       0.02907621        12.42025                0               0                0               0
2.05611                0.7305896       -47.42962       0.02980582        7.531378                0               0                0               0
2.06271                0.7216877       -48.02876       0.03053441        2.615649                0               0                0               0
2.06931                0.7125003       -48.63476       0.03126077       -2.325541                0               0                0               0
2.07591                0.7030189       -49.24727       0.03198366        -7.29084                0               0                0               0
2.08251                0.6932348       -49.86588       0.03270185       -12.27893                0               0                0               0
2.08911                0.6831398       -50.49006       0.03341411       -17.28854                0               0                0               0
2.09571                0.6727258       -51.11916        0.0341192       -22.31843                0               0                0               0
2.10231                0.6619853       -51.75238       0.03481591        -27.3674                0               0                0               0
2.10891                0.6509111       -52.38881       0.03550302       -32.43431                0               0                0               0
2.11551                0.6394971       -53.02734       0.03617932       -37.51803                0               0                0               0
2.12211                0.6277379       -53.66672       0.03684363       -42.61747                0               0                0               0
2.12871                 0.615629       -54.30546       0.03749476        -47.7316                0               0                0               0
2.13531                0.6031674       -54.94187       0.03813157       -52.85941                0               0                0               0
2.14191                0.5903511       -55.57403       0.03875291       -57.99989                0               0                0               0
2.14851                0.5771798       -56.19972       0.03935769       -63.15212                0               0                0               0
2.15512                 0.563655       -56.81645       0.03994481       -68.31516                0               0                0               0
2.16172                0.5497795       -57.42136       0.04051322       -73.48812                0               0                0               0
2.16832                0.5355585       -58.01123       0.04106188       -78.67013                0               0                0               0
2.17492                0.5209991       -58.58241       0.04158983       -83.86034                0               0                0               0
2.18152                0.5061107       -59.13075       0.04209609       -89.05793                0               0                0               0
2.18812                 0.490905       -59.65153       0.04257974       -94.26208                0               0                0               0
2.19472                0.4753962       -60.13939       0.04303991       -99.47202                0               0                0               0
2.20132                0.4596015       -60.58821       0.04347576        -104.687                0               0                0               0
2.20792                0.4435406       -60.99102        0.0438865       -109.9062                0               0                0               0
2.21452                0.4272367       -61.33974       0.04427139       -115.1289                0               0                0               0
2.22112                0.4107162       -61.62514       0.04462971       -120.3544                0               0                0               0
2.22772                0.3940091       -61.83651       0.04496082        -125.582                0               0                0               0
2.23432                0.3771497        -61.9614       0.04526413       -130.8109                0               0                0               0
2.24092                0.3601768       -61.98525       0.04553908       -136.0404                0               0                0               0
2.24752                0.3431343       -61.89107       0.04578519       -141.2699                0               0                0               0
2.25413                0.3260724       -61.65876       0.04600201       -146.4986                0               0                0               0
2.26073                0.3090482       -61.26464       0.04618917       -151.7259                0               0                0               0
2.26733                0.2921272       -60.68066       0.04634634       -156.9511                0               0                0               0
2.27393                0.2753854       -59.87355       0.04647326       -162.1734                0               0                0               0
2.28053                0.2589113       -58.80398       0.04656972       -167.3922                0               0                0               0
2.28713                0.2428088       -57.42565       0.04663558       -172.6068                0               0                0               0
2.29373                0.2272007       -55.68474       0.04667077       -177.8165                0               0                0               0