! TOUCHSTONE file generated by CST MICROWAVE STUDIO
! Date and time: Tue Mar 11 13:56:38 2025
! Project name: transverse.cst
! Parameters = {Fracture=1; B=10; D=160; F=15; Feed=2.85625; L=100; M=30; R=0.384908; S=1; Theta=90; length=57.125; wave=114.25}
! Header version: 2024
! Port assignment regex: !\s*Touchstone port\s*([0-9]+)\s*=\s*(CST MWS port|CST DES external port|CST DES block port)\s*(.+)\s* \(\"(.*)\"\)(\s*mode\s*([0-9]+))?.*
! Touchstone port assignment:
! Touchstone port 1 = CST MWS port 1 ("")
! Touchstone port 2 = CST MWS port 2 ("")
# GHz S MA R 50
1                      0.9975285       -9.999951     0.0004879695        179.5336                0               0                0               0
1.00658                0.9974445       -10.08742     0.0004867679        173.7269                0               0                0               0
1.01316                0.9973619       -10.17538     0.0004835164        168.0137                0               0                0               0
1.01974                0.9972812       -10.26389     0.0004781684         162.402                0               0                0               0
1.02632                0.9972021       -10.35299     0.0004706878        156.9023                0               0                0               0
1.03289                0.9971246       -10.44273     0.0004610508        151.5283                0               0                0               0
1.03947                0.9970486       -10.53315     0.0004492478         146.298                0               0                0               0
1.04605                0.9969738       -10.62429     0.0004352859        141.2347                0               0                0               0
1.05263                0.9968998       -10.71621     0.0004191929        136.3688                0               0                0               0
1.05921                 0.996826       -10.80895     0.0004010223        131.7408                0               0                0               0
1.06579                0.9967519       -10.90253     0.0003808612         127.405                0               0                0               0
1.07237                0.9966769       -10.99699     0.0003588417         123.435                0               0                0               0
1.07895                0.9966002       -11.09235     0.0003351593        119.9323                0               0                0               0
1.08553                 0.996521       -11.18864     0.0003101019        117.0386                0               0                0               0
1.09211                0.9964386       -11.28587     0.0002840969        114.9539                0               0                0               0
1.09868                0.9963522       -11.38404     0.0002577895        113.9601                0               0                0               0
1.10526                 0.996261       -11.48316     0.0002321678        114.4438                0               0                0               0
1.11184                0.9961642        -11.5832      0.000208749          116.89                0               0                0               0
1.11842                0.9960612       -11.68418     0.0001897832        121.7635                0               0                0               0
1.125                  0.9959512       -11.78605     0.0001782495        129.1379                0               0                0               0
1.13158                 0.995834       -11.88881     0.0001771663        138.1437                0               0                0               0
1.13816                0.9957089       -11.99242     0.0001881505        146.9736                0               0                0               0
1.14474                0.9955756       -12.09685     0.0002105535        153.9495                0               0                0               0
1.15132                0.9954341       -12.20207     0.0002422428        158.4245                0               0                0               0
1.15789                0.9952842       -12.30805     0.0002809112         160.595                0               0                0               0
1.16447                0.9951261       -12.41476     0.0003247215          160.95                0               0                0               0
1.17105                0.9949597       -12.52216      0.000372362        159.9598                0               0                0               0
1.17763                0.9947857       -12.63024     0.0004229121        157.9894                0               0                0               0
1.18421                0.9946042       -12.73896     0.0004757074        155.3032                0               0                0               0
1.19079                0.9944159       -12.84831      0.000530245        152.0888                0               0                0               0
1.19737                0.9942214       -12.95829     0.0005861233        148.4799                0               0                0               0
1.20395                0.9940213       -13.06888     0.0006430045        144.5732                0               0                0               0
1.21053                0.9938164        -13.1801     0.0007005922        140.4394                0               0                0               0
1.21711                0.9936073       -13.29195     0.0007586167        136.1316                0               0                0               0
1.22368                 0.993395       -13.40446     0.0008168268        131.6899                0               0                0               0
1.23026                0.9931799       -13.51766     0.0008749835        127.1457                0               0                0               0
1.23684                0.9929629        -13.6316     0.0009328576        122.5239                0               0                0               0
1.24342                0.9927444        -13.7463     0.0009902274        117.8443                0               0                0               0
1.25                    0.992525       -13.86184      0.001046878        113.1232                0               0                0               0
1.25658                0.9923051       -13.97826      0.001102599        108.3745                0               0                0               0
1.26316                0.9920848       -14.09565       0.00115719        103.6098                0               0                0               0
1.26974                0.9918643       -14.21405      0.001210454        98.83933                0               0                0               0
1.27632                0.9916436       -14.33355      0.001262204        94.07206                0               0                0               0
1.28289                0.9914223       -14.45423      0.001312262        89.31625                0               0                0               0
1.28947                0.9912002       -14.57614       0.00136046        84.57946                0               0                0               0
1.29605                0.9909767       -14.69937      0.001406643        79.86884                0               0                0               0
1.30263                0.9907511       -14.82398      0.001450669        75.19124                0               0                0               0
1.30921                0.9905226       -14.95004      0.001492412        70.55333                0               0                0               0
1.31579                0.9902904        -15.0776      0.001531766        65.96173                0               0                0               0
1.32237                0.9900532       -15.20671      0.001568643        61.42304                0               0                0               0
1.32895                0.9898099       -15.33741      0.001602979        56.94395                0               0                0               0
1.33553                0.9895594       -15.46974      0.001634737        52.53124                0               0                0               0
1.34211                0.9893004       -15.60373       0.00166391        48.19189                0               0                0               0
1.34868                0.9890317       -15.73938      0.001690521        43.93302                0               0                0               0
1.35526                 0.988752       -15.87671      0.001714631        39.76194                0               0                0               0
1.36184                0.9884603        -16.0157      0.001736341        35.68613                0               0                0               0
1.36842                0.9881554       -16.15636      0.001755795        31.71313                0               0                0               0
1.375                  0.9878364       -16.29866      0.001773186        27.85053                0               0                0               0
1.38158                0.9875024       -16.44257       0.00178876        24.10578                0               0                0               0
1.38816                0.9871527       -16.58808      0.001802816        20.48605                0               0                0               0
1.39474                0.9867867       -16.73513      0.001815714          16.998                0               0                0               0
1.40132                0.9864042       -16.88371      0.001827875        13.64743                0               0                0               0
1.40789                0.9860047       -17.03377      0.001839785        10.43895                0               0                0               0
1.41447                0.9855883       -17.18528       0.00185199        7.375592                0               0                0               0
1.42105                0.9851552       -17.33822      0.001865098         4.45825                0               0                0               0
1.42763                0.9847056       -17.49256      0.001879773        1.685257                0               0                0               0
1.43421                0.9842402       -17.64827      0.001896722      -0.9481126                0               0                0               0
1.44079                0.9837592       -17.80537       0.00191669        -3.45004                0               0                0               0
1.44737                0.9832634       -17.96384      0.001940438       -5.832421                0               0                0               0
1.45395                0.9827536        -18.1237      0.001968727       -8.110899                0               0                0               0
1.46053                0.9822306       -18.28498      0.002002297       -10.30466                0               0                0               0
1.46711                0.9816951       -18.44771       0.00204184        -12.4359                0               0                0               0
1.47368                0.9811479       -18.61195      0.002087981       -14.52904                0               0                0               0
1.48026                0.9805897       -18.77776      0.002141259       -16.60966                0               0                0               0
1.48684                0.9800211       -18.94521      0.002202107       -18.70339                0               0                0               0
1.49342                0.9794426        -19.1144      0.002270847       -20.83472                0               0                0               0
1.5                    0.9788545       -19.28542      0.002347678       -23.02594                0               0                0               0
1.50658                0.9782569       -19.45837      0.002432686       -25.29636                0               0                0               0
1.51316                0.9776498       -19.63338      0.002525843       -27.66174                0               0                0               0
1.51974                0.9770326       -19.81057      0.002627023       -30.13407                0               0                0               0
1.52632                0.9764052       -19.99006       0.00273601        -32.7216                0               0                0               0
1.53289                0.9757662       -20.17198      0.002852514        -35.4291                0               0                0               0
1.53947                 0.975115       -20.35645      0.002976187       -38.25821                0               0                0               0
1.54605                  0.97445       -20.54359      0.003106633       -41.20795                0               0                0               0
1.55263                0.9737697       -20.73353      0.003243419        -44.2752                0               0                0               0
1.55921                0.9730723       -20.92636       0.00338609        -47.4552                0               0                0               0
1.56579                0.9723557        -21.1222      0.003534173       -50.74195                0               0                0               0
1.57237                0.9716177       -21.32114      0.003687188        -54.1286                0               0                0               0
1.57895                0.9708564       -21.52324      0.003844652       -57.60777                0               0                0               0
1.58553                0.9700687       -21.72858      0.004006082       -61.17178                0               0                0               0
1.59211                0.9692526        -21.9372      0.004171005       -64.81286                0               0                0               0
1.59868                0.9684055       -22.14914      0.004338958       -68.52327                0               0                0               0
1.60526                0.9675248       -22.36442      0.004509491       -72.29542                0               0                0               0
1.61184                0.9666081       -22.58304      0.004682171       -76.12194                0               0                0               0
1.61842                0.9656532         -22.805      0.004856586       -79.99571                0               0                0               0
1.625                  0.9646578       -23.03029      0.005032346       -83.90991                0               0                0               0
1.63158                  0.96362       -23.25885      0.005209085       -87.85801                0               0                0               0
1.63816                0.9625379       -23.49068      0.005386469        -91.8338                0               0                0               0
1.64474                  0.96141       -23.72571      0.005564195       -95.83136                0               0                0               0
1.65132                 0.960235        -23.9639      0.005741994       -99.84507                0               0                0               0
1.65789                0.9590117        -24.2052      0.005919636       -103.8696                0               0                0               0
1.66447                0.9577395       -24.44957      0.006096935       -107.8999                0               0                0               0
1.67105                0.9564178       -24.69696      0.006273748       -111.9312                0               0                0               0
1.67763                0.9550463       -24.94734      0.006449984       -115.9591                0               0                0               0
1.68421                0.9536249       -25.20069      0.006625606       -119.9792                0               0                0               0
1.69079                0.9521538       -25.45699      0.006800632       -123.9876                0               0                0               0
1.69737                0.9506332       -25.71626      0.006975142       -127.9806                0               0                0               0
1.70395                0.9490636       -25.97851      0.007149284       -131.9549                0               0                0               0
1.71053                0.9474455       -26.24378      0.007323269       -135.9074                0               0                0               0
1.71711                0.9457794       -26.51215      0.007497385       -139.8353                0               0                0               0
1.72368                0.9440657       -26.78369      0.007671991       -143.7362                0               0                0               0
1.73026                0.9423049       -27.05851      0.007847523        -147.608                0               0                0               0
1.73684                0.9404974       -27.33675      0.008024496       -151.4492                0               0                0               0
1.74342                 0.938643       -27.61855      0.008203498       -155.2585                0               0                0               0
1.75                   0.9367417       -27.90409      0.008385203       -159.0352                0               0                0               0
1.75658                0.9347929       -28.19355      0.008570354       -162.7791                0               0                0               0
1.76316                0.9327959       -28.48715       0.00875977       -166.4905                0               0                0               0
1.76974                0.9307496       -28.78511       0.00895434       -170.1702                0               0                0               0
1.77632                0.9286521       -29.08766      0.009155007       -173.8197                0               0                0               0
1.78289                0.9265015       -29.39506       0.00936278        -177.441                0               0                0               0
1.78947                0.9242953       -29.70755      0.009578705        178.9634                0               0                0               0
1.79605                0.9220304       -30.02537      0.009803865        175.3903                0               0                0               0
1.80263                0.9197036        -30.3488       0.01003937        171.8359                0               0                0               0
1.80921                0.9173107       -30.67806       0.01028633        168.2963                0               0                0               0
1.81579                0.9148476        -31.0134       0.01054586        164.7668                0               0                0               0
1.82237                0.9123094       -31.35504       0.01081904        161.2425                0               0                0               0
1.82895                 0.909691        -31.7032       0.01110695        157.7181                0               0                0               0
1.83553                 0.906987       -32.05807       0.01141058        154.1884                0               0                0               0
1.84211                0.9041916       -32.41983        0.0117309        150.6479                0               0                0               0
1.84868                 0.901299       -32.78863       0.01206876        147.0912                0               0                0               0
1.85526                0.8983028        -33.1646       0.01242498         143.513                0               0                0               0
1.86184                0.8951968       -33.54785       0.01280023        139.9084                0               0                0               0
1.86842                0.8919746       -33.93847       0.01319512        136.2726                0               0                0               0
1.875                  0.8886301       -34.33653       0.01361014        132.6012                0               0                0               0
1.88158                0.8851566       -34.74205       0.01404566        128.8902                0               0                0               0
1.88816                 0.881548       -35.15506       0.01450195        125.1363                0               0                0               0
1.89474                0.8777984       -35.57556       0.01497917        121.3365                0               0                0               0
1.90132                0.8739015       -36.00353       0.01547735        117.4882                0               0                0               0
1.90789                0.8698517       -36.43895       0.01599642        113.5896                0               0                0               0
1.91447                0.8656436       -36.88176        0.0165362        109.6391                0               0                0               0
1.92105                0.8612716       -37.33191       0.01709643        105.6357                0               0                0               0
1.92763                0.8567308       -37.78935       0.01767673        101.5788                0               0                0               0
1.93421                0.8520161       -38.25401       0.01827663        97.46816                0               0                0               0
1.94079                 0.847123       -38.72581       0.01889558        93.30399                0               0                0               0
1.94737                0.8420468       -39.20472       0.01953294        89.08672                0               0                0               0
1.95395                0.8367832       -39.69065       0.02018801        84.81708                0               0                0               0
1.96053                 0.831328       -40.18357       0.02086001          80.496                0               0                0               0
1.96711                0.8256768       -40.68342       0.02154809        76.12465                0               0                0               0
1.97368                0.8198258       -41.19018       0.02225135        71.70433                0               0                0               0
1.98026                0.8137703        -41.7038       0.02296882        67.23647                0               0                0               0
1.98684                0.8075063       -42.22428        0.0236995        62.72261                0               0                0               0
1.99342                0.8010293        -42.7516       0.02444233        58.16432                0               0                0               0
2                      0.7943345       -43.28576       0.02519619        53.56328                0               0                0               0
2.00658                0.7874172       -43.82673       0.02595995        48.92117                0               0                0               0
2.01316                0.7802724       -44.37454       0.02673244        44.23966                0               0                0               0
2.01974                0.7728946       -44.92914       0.02751243        39.52047                0               0                0               0
2.02632                0.7652779       -45.49054        0.0282987        34.76527                0               0                0               0
2.03289                0.7574165       -46.05867       0.02908997        29.97573                0               0                0               0
2.03947                0.7493038       -46.63348       0.02988496        25.15348                0               0                0               0
2.04605                0.7409334       -47.21487       0.03068236        20.30013                0               0                0               0
2.05263                0.7322982        -47.8027       0.03148086        15.41724                0               0                0               0
2.05921                 0.723391       -48.39678        0.0322791        10.50634                0               0                0               0
2.06579                0.7142046       -48.99685       0.03307576        5.568901                0               0                0               0
2.07237                0.7047314       -49.60261       0.03386946       0.6063649                0               0                0               0
2.07895                 0.694964       -50.21364       0.03465886       -4.379878                0               0                0               0
2.08553                 0.684895       -50.82944        0.0354426       -9.388484                0               0                0               0
2.09211                0.6745171       -51.44941       0.03621932       -14.41815                0               0                0               0
2.09868                0.6638236       -52.07281       0.03698765       -19.46762                0               0                0               0
2.10526                0.6528078       -52.69877       0.03774626       -24.53569                0               0                0               0
2.11184                 0.641464       -53.32627       0.03849381       -29.62117                0               0                0               0
2.11842                0.6297869       -53.95412       0.03922897       -34.72294                0               0                0               0
2.125                  0.6177723       -54.58092       0.03995044       -39.83991                0               0                0               0
2.13158                0.6054169       -55.20507       0.04065692       -44.97101                0               0                0               0
2.13816                0.5927186       -55.82474       0.04134715       -50.11522                0               0                0               0
2.14474                0.5796766       -56.43782       0.04201987       -55.27156                0               0                0               0
2.15132                0.5662919       -57.04191       0.04267389       -60.43906                0               0                0               0
2.15789                0.5525667       -57.63427         0.043308       -65.61679                0               0                0               0
2.16447                0.5385054        -58.2118       0.04392105       -70.80385                0               0                0               0
2.17105                0.5241143       -58.77098       0.04451193       -75.99936                0               0                0               0
2.17763                0.5094017       -59.30777       0.04507954       -81.20247                0               0                0               0
2.18421                0.4943784       -59.81764       0.04562285       -86.41232                0               0                0               0
2.19079                0.4790577       -60.29536       0.04614086       -91.62813                0               0                0               0
2.19737                0.4634554       -60.73502       0.04663261       -96.84907                0               0                0               0
2.20395                0.4475906       -61.12984        0.0470972       -102.0744                0               0                0               0
2.21053                0.4314849       -61.47205       0.04753377       -107.3033                0               0                0               0
2.21711                0.4151639       -61.75269        0.0479415        -112.535                0               0                0               0
2.22368                0.3986566       -61.96146       0.04831966       -117.7688                0               0                0               0
2.23026                 0.381996       -62.08638       0.04866755       -123.0039                0               0                0               0
2.23684                0.3652199       -62.11352       0.04898452       -128.2397                0               0                0               0
2.24342                0.3483711       -62.02663          0.04927       -133.4754                0               0                0               0
2.25                   0.3314985       -61.80668       0.04952347       -138.7102                0               0                0               0
2.25658                0.3146578       -61.43126       0.04974448       -143.9435                0               0                0               0
2.26316                0.2979129       -60.87403       0.04993264       -149.1745                0               0                0               0
2.26974                0.2813375       -60.10394       0.05008761       -154.4025                0               0                0               0
2.27632                0.2650172       -59.08454       0.05020915       -159.6268                0               0                0               0
2.28289                0.2490518       -57.77318       0.05029707       -164.8467                0               0                0               0
2.28947                 0.233559       -56.12068       0.05035122       -170.0614                0               0                0               0