! TOUCHSTONE file generated by CST MICROWAVE STUDIO
! Date and time: Tue Mar 11 13:56:15 2025
! Project name: transverse.cst
! Parameters = {Fracture=1; B=12.5; D=160; F=15; Feed=2.85625; L=100; M=10; R=0.384908; S=1; Theta=0; length=57.125; wave=114.25}
! Header version: 2024
! Port assignment regex: !\s*Touchstone port\s*([0-9]+)\s*=\s*(CST MWS port|CST DES external port|CST DES block port)\s*(.+)\s* \(\"(.*)\"\)(\s*mode\s*([0-9]+))?.*
! Touchstone port assignment:
! Touchstone port 1 = CST MWS port 1 ("")
! Touchstone port 2 = CST MWS port 2 ("")
# GHz S MA R 50
1                      0.9978431       -10.03251     0.0003406726       -144.2579                0               0                0               0
1.00658                0.9977477       -10.12263     0.0003492376       -148.7658                0               0                0               0
1.01316                0.9976473       -10.21307     0.0003565921       -153.2072                0               0                0               0
1.01974                0.9975425       -10.30382     0.0003626861       -157.5681                0               0                0               0
1.02632                0.9974345       -10.39487     0.0003674807       -161.8334                0               0                0               0
1.03289                0.9973239       -10.48622     0.0003709501       -165.9862                0               0                0               0
1.03947                0.9972116       -10.57787     0.0003730843       -170.0081                0               0                0               0
1.04605                0.9970987       -10.66985     0.0003738917       -173.8782                0               0                0               0
1.05263                0.9969859       -10.76218     0.0003734032       -177.5731                0               0                0               0
1.05921                 0.996874       -10.85491     0.0003716761        178.9341                0               0                0               0
1.06579                0.9967637       -10.94808     0.0003687999        175.6733                0               0                0               0
1.07237                0.9966556       -11.04174     0.0003649021        172.6783                0               0                0               0
1.07895                  0.99655       -11.13596     0.0003601561        169.9864                0               0                0               0
1.08553                0.9964474       -11.23079     0.0003547898        167.6375                0               0                0               0
1.09211                0.9963477       -11.32631     0.0003490943        165.6726                0               0                0               0
1.09868                 0.996251       -11.42259     0.0003434331        164.1311                0               0                0               0
1.10526                 0.996157       -11.51969     0.0003382485        163.0452                0               0                0               0
1.11184                0.9960652       -11.61769     0.0003340623        162.4329                0               0                0               0
1.11842                0.9959751       -11.71665     0.0003314672        162.2891                0               0                0               0
1.125                  0.9958861       -11.81662      0.000331104        162.5756                0               0                0               0
1.13158                0.9957971       -11.91766     0.0003336211        163.2148                0               0                0               0
1.13816                0.9957073       -12.01981     0.0003396203        164.0893                0               0                0               0
1.14474                0.9956154       -12.12312     0.0003495977        165.0524                0               0                0               0
1.15132                0.9955206        -12.2276      0.000363896        165.9464                0               0                0               0
1.15789                0.9954214       -12.33328     0.0003826799         166.626                0               0                0               0
1.16447                0.9953169       -12.44016     0.0004059435        166.9761                0               0                0               0
1.17105                0.9952057       -12.54824     0.0004335399        166.9216                0               0                0               0
1.17763                0.9950869       -12.65751     0.0004652232        166.4266                0               0                0               0
1.18421                0.9949593       -12.76794     0.0005006896        165.4878                0               0                0               0
1.19079                0.9948222       -12.87951     0.0005396098        164.1245                0               0                0               0
1.19737                0.9946747       -12.99217      0.000581651        162.3697                0               0                0               0
1.20395                0.9945162       -13.10589     0.0006264905        160.2629                0               0                0               0
1.21053                0.9943462       -13.22062      0.000673822        157.8454                0               0                0               0
1.21711                0.9941645       -13.33631     0.0007233571        155.1571                0               0                0               0
1.22368                0.9939711       -13.45291     0.0007748258        152.2351                0               0                0               0
1.23026                0.9937659       -13.57038     0.0008279747         149.113                0               0                0               0
1.23684                0.9935492       -13.68867     0.0008825648        145.8205                0               0                0               0
1.24342                0.9933215       -13.80774      0.000938371        142.3841                0               0                0               0
1.25                   0.9930834       -13.92755     0.0009951795        138.8269                0               0                0               0
1.25658                0.9928355       -14.04809      0.001052788        135.1692                0               0                0               0
1.26316                0.9925789       -14.16934      0.001111003        131.4289                0               0                0               0
1.26974                0.9923141       -14.29129      0.001169642        127.6216                0               0                0               0
1.27632                0.9920424       -14.41395      0.001228533        123.7613                0               0                0               0
1.28289                0.9917646       -14.53733      0.001287513        119.8604                0               0                0               0
1.28947                0.9914817       -14.66146      0.001346433        115.9301                0               0                0               0
1.29605                0.9911946       -14.78639      0.001405152        111.9803                0               0                0               0
1.30263                0.9909041       -14.91217      0.001463547        108.0201                0               0                0               0
1.30921                 0.990611       -15.03885      0.001521506        104.0579                0               0                0               0
1.31579                0.9903158        -15.1665      0.001578935        100.1012                0               0                0               0
1.32237                0.9900188        -15.2952      0.001635757        96.15703                0               0                0               0
1.32895                0.9897204       -15.42504      0.001691916        92.23195                0               0                0               0
1.33553                0.9894207        -15.5561      0.001747375        88.33196                0               0                0               0
1.34211                0.9891194       -15.68847      0.001802124        84.46264                0               0                0               0
1.34868                0.9888161       -15.82224      0.001856174        80.62915                0               0                0               0
1.35526                0.9885103       -15.95749      0.001909568        76.83623                0               0                0               0
1.36184                0.9882013       -16.09432      0.001962373         73.0882                0               0                0               0
1.36842                 0.987888        -16.2328      0.002014689        69.38891                0               0                0               0
1.375                  0.9875693       -16.37299       0.00206665        65.74174                0               0                0               0
1.38158                0.9872442       -16.51498       0.00211842        62.14952                0               0                0               0
1.38816                0.9869112        -16.6588      0.002170199        58.61452                0               0                0               0
1.39474                0.9865687       -16.80451      0.002222219        55.13832                0               0                0               0
1.40132                0.9862155       -16.95212      0.002274749        51.72181                0               0                0               0
1.40789                  0.98585       -17.10168       0.00232809         48.3651                0               0                0               0
1.41447                0.9854708       -17.25317      0.002382572        45.06743                0               0                0               0
1.42105                0.9850764       -17.40661      0.002438556        41.82718                0               0                0               0
1.42763                0.9846656       -17.56198      0.002496426        38.64177                0               0                0               0
1.43421                0.9842373       -17.71925      0.002556588        35.50768                0               0                0               0
1.44079                0.9837903       -17.87841      0.002619462        32.42047                0               0                0               0
1.44737                0.9833239       -18.03942      0.002685478         29.3748                0               0                0               0
1.45395                0.9828375       -18.20224      0.002755067         26.3645                0               0                0               0
1.46053                0.9823306       -18.36682      0.002828657        23.38271                0               0                0               0
1.46711                 0.981803       -18.53315      0.002906661        20.42198                0               0                0               0
1.47368                0.9812546       -18.70118      0.002989473        17.47449                0               0                0               0
1.48026                0.9806858       -18.87088      0.003077462        14.53219                0               0                0               0
1.48684                0.9800967       -19.04222      0.003170961        11.58699                0               0                0               0
1.49342                 0.979488        -19.2152      0.003270266         8.63102                0               0                0               0
1.5                    0.9788604       -19.38981       0.00337563         5.65675                0               0                0               0
1.50658                0.9782145       -19.56607      0.003487256        2.657189                0               0                0               0
1.51316                0.9775514         -19.744      0.003605303      -0.3739865                0               0                0               0
1.51974                0.9768718       -19.92364      0.003729877       -3.442326                0               0                0               0
1.52632                0.9761767       -20.10505      0.003861035       -6.552526                0               0                0               0
1.53289                0.9754668        -20.2883      0.003998787         -9.7084                0               0                0               0
1.53947                0.9747428       -20.47348      0.004143095       -12.91287                0               0                0               0
1.54605                0.9740053       -20.66069      0.004293879       -16.16798                0               0                0               0
1.55263                0.9732549       -20.85004      0.004451017       -19.47496                0               0                0               0
1.55921                0.9724915       -21.04168      0.004614352       -22.83427                0               0                0               0
1.56579                0.9717152       -21.23574      0.004783693       -26.24566                0               0                0               0
1.57237                0.9709255       -21.43236      0.004958823       -29.70829                0               0                0               0
1.57895                0.9701219        -21.6317      0.005139495       -33.22078                0               0                0               0
1.58553                0.9693032       -21.83392      0.005325448       -36.78129                0               0                0               0
1.59211                0.9684684       -22.03919      0.005516401       -40.38761                0               0                0               0
1.59868                0.9676157       -22.24764      0.005712061       -44.03723                0               0                0               0
1.60526                0.9667432       -22.45945      0.005912126       -47.72738                0               0                0               0
1.61184                0.9658487       -22.67474      0.006116292       -51.45512                0               0                0               0
1.61842                0.9649296       -22.89367      0.006324251       -55.21739                0               0                0               0
1.625                  0.9639835       -23.11634        0.0065357       -59.01103                0               0                0               0
1.63158                 0.963007       -23.34287      0.006750342       -62.83283                0               0                0               0
1.63816                0.9619974       -23.57335      0.006967888       -66.67955                0               0                0               0
1.64474                0.9609514       -23.80786      0.007188067       -70.54798                0               0                0               0
1.65132                0.9598657       -24.04646       0.00741062       -74.43494                0               0                0               0
1.65789                0.9587369       -24.28918      0.007635315       -78.33729                0               0                0               0
1.66447                 0.957562       -24.53605      0.007861941       -82.25197                0               0                0               0
1.67105                0.9563376       -24.78707      0.008090313         -86.176                0               0                0               0
1.67763                0.9550608       -25.04225      0.008320284        -90.1065                0               0                0               0
1.68421                0.9537286       -25.30155      0.008551733       -94.04069                0               0                0               0
1.69079                0.9523387       -25.56494       0.00878459       -97.97592                0               0                0               0
1.69737                0.9508882       -25.83237      0.009018815       -101.9097                0               0                0               0
1.70395                0.9493754        -26.1038      0.009254421       -105.8396                0               0                0               0
1.71053                0.9477981       -26.37918      0.009491466       -109.7634                0               0                0               0
1.71711                 0.946155       -26.65845      0.009730059       -113.6791                0               0                0               0
1.72368                0.9444447       -26.94157      0.009970365       -117.5849                0               0                0               0
1.73026                0.9426662       -27.22848        0.0102126        -121.479                0               0                0               0
1.73684                0.9408187       -27.51916       0.01045705       -125.3599                0               0                0               0
1.74342                0.9389018        -27.8136       0.01070404       -129.2265                0               0                0               0
1.75                   0.9369151       -28.11178       0.01095397       -133.0778                0               0                0               0
1.75658                0.9348583       -28.41373       0.01120731       -136.9129                0               0                0               0
1.76316                0.9327315       -28.71948       0.01146455       -140.7314                0               0                0               0
1.76974                0.9305344       -29.02909       0.01172628       -144.5331                0               0                0               0
1.77632                0.9282669       -29.34266       0.01199312       -148.3181                0               0                0               0
1.78289                0.9259291       -29.66029       0.01226576       -152.0867                0               0                0               0
1.78947                0.9235202       -29.98212       0.01254492       -155.8396                0               0                0               0
1.79605                0.9210397       -30.30832       0.01283138       -159.5777                0               0                0               0
1.80263                0.9184868       -30.63906       0.01312595       -163.3023                0               0                0               0
1.80921                0.9158601       -30.97455       0.01342947       -167.0151                0               0                0               0
1.81579                0.9131578       -31.31502        0.0137428       -170.7177                0               0                0               0
1.82237                0.9103778       -31.66071       0.01406682       -174.4123                0               0                0               0
1.82895                0.9075173       -32.01188       0.01440242       -178.1011                0               0                0               0
1.83553                0.9045732       -32.36879       0.01475048        178.2132                0               0                0               0
1.84211                0.9015414       -32.73172       0.01511185         174.528                0               0                0               0
1.84868                0.8984177       -33.10093       0.01548739        170.8405                0               0                0               0
1.85526                0.8951971       -33.47669        0.0158779        167.1477                0               0                0               0
1.86184                0.8918738       -33.85925       0.01628414        163.4466                0               0                0               0
1.86842                0.8884418       -34.24885       0.01670682        159.7343                0               0                0               0
1.875                  0.8848944       -34.64573       0.01714659        156.0079                0               0                0               0
1.88158                0.8812245       -35.05007       0.01760404        152.2643                0               0                0               0
1.88816                0.8774244       -35.46204       0.01807966        148.5008                0               0                0               0
1.89474                0.8734862       -35.88179       0.01857389        144.7148                0               0                0               0
1.90132                0.8694017       -36.30941       0.01908704        140.9038                0               0                0               0
1.90789                0.8651623       -36.74496       0.01961938        137.0655                0               0                0               0
1.91447                0.8607595       -37.18846       0.02017104         133.198                0               0                0               0
1.92105                0.8561848        -37.6399       0.02074209        129.2993                0               0                0               0
1.92763                0.8514293       -38.09919       0.02133248        125.3678                0               0                0               0
1.93421                0.8464847       -38.56622       0.02194209        121.4023                0               0                0               0
1.94079                0.8413427       -39.04084       0.02257067        117.4017                0               0                0               0
1.94737                0.8359951       -39.52283       0.02321792        113.3651                0               0                0               0
1.95395                0.8304346       -40.01193       0.02388342        109.2918                0               0                0               0
1.96053                0.8246536       -40.50784       0.02456666        105.1816                0               0                0               0
1.96711                0.8186456       -41.01022       0.02526706        101.0342                0               0                0               0
1.97368                0.8124044       -41.51869       0.02598397        96.84953                0               0                0               0
1.98026                0.8059244       -42.03281       0.02671663        92.62788                0               0                0               0
1.98684                0.7992007       -42.55214       0.02746424        88.36955                0               0                0               0
1.99342                 0.792229       -43.07616       0.02822591        84.07502                0               0                0               0
2                      0.7850056       -43.60436        0.0290007        79.74489                0               0                0               0
2.00658                0.7775278       -44.13617       0.02978759        75.37989                0               0                0               0
2.01316                0.7697933       -44.67102       0.03058554        70.98082                0               0                0               0
2.01974                0.7618004       -45.20828       0.03139342        66.54856                0               0                0               0
2.02632                0.7535484       -45.74733       0.03221007         62.0841                0               0                0               0
2.03289                 0.745037        -46.2875       0.03303429        57.58842                0               0                0               0
2.03947                0.7362663       -46.82812       0.03386484        53.06259                0               0                0               0
2.04605                0.7272377       -47.36847       0.03470044         48.5077                0               0                0               0
2.05263                0.7179522       -47.90785       0.03553979        43.92488                0               0                0               0
2.05921                0.7084118        -48.4455       0.03638156        39.31523                0               0                0               0
2.06579                 0.698619       -48.98065       0.03722438        34.67992                0               0                0               0
2.07237                0.6885765       -49.51248        0.0380669        30.02009                0               0                0               0
2.07895                0.6782871       -50.04016       0.03890771        25.33689                0               0                0               0
2.08553                0.6677546       -50.56281       0.03974543        20.63146                0               0                0               0
2.09211                0.6569825        -51.0795       0.04057863        15.90493                0               0                0               0
2.09868                0.6459747       -51.58925       0.04140593        11.15844                0               0                0               0
2.10526                0.6347354         -52.091        0.0422259        6.393096                0               0                0               0
2.11184                 0.623269       -52.58363       0.04303716        1.609992                0               0                0               0
2.11842                  0.61158       -53.06593        0.0438383       -3.189792                0               0                0               0
2.125                  0.5996735       -53.53657       0.04462794       -8.005188                0               0                0               0
2.13158                0.5875544       -53.99409       0.04540471       -12.83515                0               0                0               0
2.13816                0.5752282       -54.43691       0.04616726       -17.67866                0               0                0               0
2.14474                0.5627006       -54.86327       0.04691428       -22.53469                0               0                0               0
2.15132                0.5499777       -55.27119       0.04764445       -27.40226                0               0                0               0
2.15789                0.5370662       -55.65852        0.0483565        -32.2804                0               0                0               0
2.16447                0.5239733        -56.0228        0.0490492       -37.16815                0               0                0               0
2.17105                0.5107067       -56.36131       0.04972134       -42.06456                0               0                0               0
2.17763                0.4972753       -56.67096       0.05037176       -46.96871                0               0                0               0
2.18421                0.4836885        -56.9483       0.05099933       -51.87969                0               0                0               0
2.19079                 0.469957       -57.18941       0.05160297       -56.79662                0               0                0               0
2.19737                 0.456093       -57.38987       0.05218167        -61.7186                0               0                0               0
2.20395                0.4421097       -57.54467       0.05273442       -66.64476                0               0                0               0
2.21053                0.4280224       -57.64811       0.05326032       -71.57425                0               0                0               0
2.21711                0.4138481       -57.69374       0.05375848       -76.50622                0               0                0               0
2.22368                0.3996061       -57.67422        0.0542281       -81.43984                0               0                0               0
2.23026                0.3853184       -57.58119       0.05466842       -86.37427                0               0                0               0
2.23684                0.3710098       -57.40515       0.05507877        -91.3087                0               0                0               0
2.24342                0.3567086       -57.13523        0.0554585        -96.2423                0               0                0               0
2.25                   0.3424469       -56.75911       0.05580708       -101.1743                0               0                0               0
2.25658                0.3282612       -56.26276       0.05612401       -106.1038                0               0                0               0
2.26316                0.3141935       -55.63022       0.05640887       -111.0301                0               0                0               0
2.26974                0.3002914       -54.84347       0.05666132       -115.9523                0               0                0               0
2.27632                0.2866096       -53.88227       0.05688109       -120.8698                0               0                0               0
2.28289                0.2732107       -52.72403       0.05706798       -125.7816                0               0                0               0
2.28947                0.2601666       -51.34394       0.05722187        -130.687                0               0                0               0