! TOUCHSTONE file generated by CST MICROWAVE STUDIO
! Date and time: Tue Mar 11 13:57:12 2025
! Project name: transverse.cst
! Parameters = {Fracture=5; B=10; D=160; F=5; Feed=2.85625; L=100; M=20; R=0.384908; S=2; Theta=180; length=57.125; wave=114.25}
! Header version: 2024
! Port assignment regex: !\s*Touchstone port\s*([0-9]+)\s*=\s*(CST MWS port|CST DES external port|CST DES block port)\s*(.+)\s* \(\"(.*)\"\)(\s*mode\s*([0-9]+))?.*
! Touchstone port assignment:
! Touchstone port 1 = CST MWS port 1 ("")
! Touchstone port 2 = CST MWS port 2 ("")
# GHz S MA R 50
1                      0.9978524       -9.765406     0.0003441731       -141.5364                0               0                0               0
1.0066                 0.9977518       -9.854622     0.0003578534       -145.6366                0               0                0               0
1.0132                 0.9976441       -9.944143     0.0003709018       -149.7397                0               0                0               0
1.0198                 0.9975299       -10.03393     0.0003832615        -153.833                0               0                0               0
1.0264                 0.9974101       -10.12395     0.0003948828       -157.9044                0               0                0               0
1.033                  0.9972859       -10.21418     0.0004057236       -161.9423                0               0                0               0
1.0396                 0.9971583       -10.30462     0.0004157506       -165.9358                0               0                0               0
1.0462                 0.9970285       -10.39527     0.0004249399       -169.8736                0               0                0               0
1.05281                0.9968975       -10.48614     0.0004332786       -173.7451                0               0                0               0
1.05941                0.9967668       -10.57725     0.0004407657       -177.5391                0               0                0               0
1.06601                0.9966373       -10.66865     0.0004474133        178.7552                0               0                0               0
1.07261                0.9965098       -10.76037     0.0004532487        175.1491                0               0                0               0
1.07921                0.9963855        -10.8525     0.0004583151        171.6538                0               0                0               0
1.08581                0.9962649       -10.94507     0.0004626739        168.2804                0               0                0               0
1.09241                0.9961486       -11.03818     0.0004664055        165.0401                0               0                0               0
1.09901                0.9960369       -11.13191     0.0004696117        161.9434                0               0                0               0
1.10561                  0.99593       -11.22633      0.000472416        159.0002                0               0                0               0
1.11221                0.9958278       -11.32153     0.0004749652         156.219                0               0                0               0
1.11881                  0.99573        -11.4176     0.0004774295        153.6065                0               0                0               0
1.12541                0.9956362       -11.51461     0.0004800021        151.1672                0               0                0               0
1.13201                0.9955455       -11.61265     0.0004828976        148.9017                0               0                0               0
1.13861                0.9954573       -11.71178     0.0004863493         146.807                0               0                0               0
1.14521                0.9953704       -11.81207     0.0004906046        144.8749                0               0                0               0
1.15182                0.9952835       -11.91357     0.0004959188         143.092                0               0                0               0
1.15842                0.9951956       -12.01633     0.0005025474        141.4391                0               0                0               0
1.16502                0.9951051       -12.12038     0.0005107371        139.8917                0               0                0               0
1.17162                0.9950106       -12.22573     0.0005207164        138.4206                0               0                0               0
1.17822                0.9949109       -12.33239     0.0005326857        136.9929                0               0                0               0
1.18482                0.9948045       -12.44036     0.0005468095        135.5744                0               0                0               0
1.19142                0.9946901       -12.54962       0.00056321         134.131                0               0                0               0
1.19802                0.9945666       -12.66014     0.0005819639        132.6304                0               0                0               0
1.20462                0.9944329       -12.77189     0.0006031012        131.0445                0               0                0               0
1.21122                 0.994288       -12.88482     0.0006266073        129.3498                0               0                0               0
1.21782                0.9941314       -12.99888      0.000652427        127.5283                0               0                0               0
1.22442                0.9939625       -13.11401     0.0006804699        125.5678                0               0                0               0
1.23102                 0.993781       -13.23016     0.0007106165        123.4613                0               0                0               0
1.23762                0.9935868       -13.34727     0.0007427238        121.2066                0               0                0               0
1.24422                0.9933801       -13.46527     0.0007766317        118.8055                0               0                0               0
1.25083                0.9931612       -13.58413     0.0008121675        116.2628                0               0                0               0
1.25743                0.9929307       -13.70378     0.0008491505        113.5857                0               0                0               0
1.26403                0.9926893       -13.82419     0.0008873952         110.783                0               0                0               0
1.27063                 0.992438       -13.94534     0.0009267149        107.8648                0               0                0               0
1.27723                0.9921776       -14.06721     0.0009669232        104.8416                0               0                0               0
1.28383                0.9919093       -14.18978      0.001007837        101.7242                0               0                0               0
1.29043                0.9916344       -14.31308      0.001049275        98.52352                0               0                0               0
1.29703                0.9913539       -14.43711      0.001091066        95.25027                0               0                0               0
1.30363                0.9910689       -14.56192      0.001133041        91.91487                0               0                0               0
1.31023                0.9907807       -14.68755      0.001175042        88.52739                0               0                0               0
1.31683                  0.99049       -14.81407      0.001216919        85.09749                0               0                0               0
1.32343                 0.990198       -14.94154      0.001258534        81.63447                0               0                0               0
1.33003                0.9899051       -15.07007      0.001299758        78.14721                0               0                0               0
1.33663                0.9896119       -15.19973      0.001340477        74.64419                0               0                0               0
1.34323                0.9893187       -15.33063      0.001380591        71.13355                0               0                0               0
1.34984                0.9890254       -15.46287      0.001420017        67.62308                0               0                0               0
1.35644                0.9887319       -15.59657      0.001458688        64.12021                0               0                0               0
1.36304                0.9884376       -15.73182      0.001496556        60.63208                0               0                0               0
1.36964                0.9881419       -15.86874      0.001533596        57.16552                0               0                0               0
1.37624                0.9878439       -16.00743      0.001569802        53.72702                0               0                0               0
1.38284                0.9875424       -16.14798      0.001605196        50.32277                0               0                0               0
1.38944                0.9872357       -16.29049      0.001639824        46.95859                0               0                0               0
1.39604                0.9869229       -16.43502       0.00167376        43.63993                0               0                0               0
1.40264                0.9866016       -16.58164      0.001707107        40.37179                0               0                0               0
1.40924                0.9862705       -16.73041      0.001739999        37.15869                0               0                0               0
1.41584                0.9859275       -16.88136      0.001772601        34.00457                0               0                0               0
1.42244                 0.985571       -17.03452      0.001805112        30.91269                0               0                0               0
1.42904                0.9851989       -17.18989       0.00183776        27.88558                0               0                0               0
1.43564                0.9848094       -17.34748      0.001870808        24.92491                0               0                0               0
1.44224                0.9844009       -17.50727       0.00190455        22.03134                0               0                0               0
1.44884                0.9839721       -17.66923      0.001939307        19.20451                0               0                0               0
1.45545                0.9835213       -17.83333      0.001975427        16.44288                0               0                0               0
1.46205                0.9830474       -17.99952       0.00201328        13.74368                0               0                0               0
1.46865                0.9825496       -18.16775      0.002053256        11.10287                0               0                0               0
1.47525                0.9820271       -18.33796      0.002095753        8.515177                0               0                0               0
1.48185                0.9814797       -18.51012      0.002141179        5.974091                0               0                0               0
1.48845                0.9809069       -18.68415      0.002189938         3.47201                0               0                0               0
1.49505                0.9803088       -18.86002      0.002242425        1.000381                0               0                0               0
1.50165                0.9796858       -19.03768      0.002299019       -1.450089                0               0                0               0
1.50825                0.9790383       -19.21712      0.002360079       -3.889196                0               0                0               0
1.51485                 0.978367        -19.3983      0.002425931        -6.32695                0               0                0               0
1.52145                0.9776727       -19.58122      0.002496865       -8.773307                0               0                0               0
1.52805                0.9769563        -19.7659      0.002573134       -11.23787                0               0                0               0
1.53465                0.9762188       -19.95236      0.002654947       -13.72966                0               0                0               0
1.54125                0.9754613       -20.14065      0.002742469       -16.25685                0               0                0               0
1.54785                0.9746846       -20.33083       0.00283582       -18.82665                0               0                0               0
1.55446                0.9738896       -20.52298      0.002935078       -21.44514                0               0                0               0
1.56106                0.9730771       -20.71721      0.003040276       -24.11726                0               0                0               0
1.56766                0.9722476       -20.91363      0.003151413       -26.84673                0               0                0               0
1.57426                0.9714016       -21.11236       0.00326845       -29.63612                0               0                0               0
1.58086                 0.970539       -21.31355      0.003391319       -32.48693                0               0                0               0
1.58746                0.9696595       -21.51736      0.003519925       -35.39966                0               0                0               0
1.59406                0.9687628       -21.72395      0.003654153       -38.37391                0               0                0               0
1.60066                0.9678479       -21.93348      0.003793871       -41.40852                0               0                0               0
1.60726                0.9669135       -22.14612      0.003938934       -44.50169                0               0                0               0
1.61386                 0.965958       -22.36205      0.004089189       -47.65108                0               0                0               0
1.62046                0.9649796       -22.58143       0.00424448       -50.85397                0               0                0               0
1.62706                0.9639758       -22.80441      0.004404651       -54.10725                0               0                0               0
1.63366                0.9629441       -23.03116      0.004569549       -57.40767                0               0                0               0
1.64026                0.9618816       -23.26179      0.004739032       -60.75177                0               0                0               0
1.64686                0.9607852       -23.49644      0.004912966       -64.13605                0               0                0               0
1.65347                0.9596515       -23.73521      0.005091232         -67.557                0               0                0               0
1.66007                0.9584772       -23.97819      0.005273727        -71.0111                0               0                0               0
1.66667                0.9572585       -24.22544      0.005460373       -74.49495                0               0                0               0
1.67327                0.9559918       -24.47702      0.005651106       -78.00525                0               0                0               0
1.67987                0.9546736       -24.73295      0.005845897       -81.53884                0               0                0               0
1.68647                0.9533002       -24.99324      0.006044736       -85.09272                0               0                0               0
1.69307                0.9518683       -25.25788      0.006247653       -88.66408                0               0                0               0
1.69967                0.9503747       -25.52686      0.006454698       -92.25032                0               0                0               0
1.70627                0.9488161       -25.80013      0.006665964       -95.84905                0               0                0               0
1.71287                0.9471897       -26.07763      0.006881573       -99.45812                0               0                0               0
1.71947                0.9454931       -26.35932      0.007101687       -103.0756                0               0                0               0
1.72607                0.9437241       -26.64512      0.007326502       -106.6999                0               0                0               0
1.73267                0.9418805       -26.93497      0.007556254       -110.3294                0               0                0               0
1.73927                0.9399609        -27.2288      0.007791215       -113.9632                0               0                0               0
1.74587                 0.937964       -27.52655      0.008031696       -117.6003                0               0                0               0
1.75248                0.9358886       -27.82817       0.00827804         -121.24                0               0                0               0
1.75908                0.9337338       -28.13361      0.008530629       -124.8821                0               0                0               0
1.76568                0.9314993       -28.44284      0.008789875       -128.5264                0               0                0               0
1.77228                0.9291846       -28.75587      0.009056224        -132.173                0               0                0               0
1.77888                0.9267893       -29.07269      0.009330149       -135.8223                0               0                0               0
1.78548                0.9243134       -29.39335      0.009612146       -139.4751                0               0                0               0
1.79208                0.9217567        -29.7179      0.009902732        -143.132                0               0                0               0
1.79868                0.9191187       -30.04643       0.01020244       -146.7942                0               0                0               0
1.80528                 0.916399       -30.37904       0.01051182       -150.4629                0               0                0               0
1.81188                0.9135972       -30.71587       0.01083141       -154.1395                0               0                0               0
1.81848                0.9107122       -31.05707       0.01116178       -157.8254                0               0                0               0
1.82508                0.9077428       -31.40284       0.01150347       -161.5224                0               0                0               0
1.83168                0.9046873       -31.75335       0.01185702       -165.2321                0               0                0               0
1.83828                0.9015437       -32.10884       0.01222295       -168.9563                0               0                0               0
1.84488                0.8983094       -32.46953       0.01260177       -172.6968                0               0                0               0
1.85149                0.8949811       -32.83566       0.01299395       -176.4554                0               0                0               0
1.85809                0.8915551       -33.20748       0.01339994        179.7661                0               0                0               0
1.86469                0.8880273       -33.58523       0.01382014         175.966                0               0                0               0
1.87129                0.8843927       -33.96915       0.01425492        172.1427                0               0                0               0
1.87789                0.8806458       -34.35946       0.01470461        168.2946                0               0                0               0
1.88449                0.8767808       -34.75639       0.01516947        164.4202                0               0                0               0
1.89109                0.8727911       -35.16013       0.01564973        160.5182                0               0                0               0
1.89769                0.8686698       -35.57083       0.01614555        156.5875                0               0                0               0
1.90429                0.8644095       -35.98864       0.01665704         152.627                0               0                0               0
1.91089                0.8600026       -36.41367       0.01718426        148.6357                0               0                0               0
1.91749                 0.855441       -36.84596       0.01772719         144.613                0               0                0               0
1.92409                0.8507167       -37.28554       0.01828576        140.5582                0               0                0               0
1.93069                0.8458214       -37.73239       0.01885985         136.471                0               0                0               0
1.93729                0.8407469       -38.18643       0.01944927        132.3509                0               0                0               0
1.94389                0.8354851       -38.64754       0.02005375        128.1979                0               0                0               0
1.9505                  0.830028       -39.11555         0.020673        124.0119                0               0                0               0
1.9571                  0.824368       -39.59022       0.02130663        119.7931                0               0                0               0
1.9637                 0.8184976       -40.07128       0.02195421        115.5416                0               0                0               0
1.9703                 0.8124102       -40.55842       0.02261527        111.2577                0               0                0               0
1.9769                 0.8060993       -41.05125       0.02328926        106.9419                0               0                0               0
1.9835                 0.7995592       -41.54935       0.02397559        102.5947                0               0                0               0
1.9901                 0.7927847       -42.05225        0.0246736        98.21658                0               0                0               0
1.9967                 0.7857715       -42.55944       0.02538261        93.80828                0               0                0               0
2.0033                 0.7785158       -43.07039       0.02610189        89.37047                0               0                0               0
2.0099                 0.7710148       -43.58449       0.02683062         84.9039                0               0                0               0
2.0165                 0.7632663       -44.10113         0.027568        80.40938                0               0                0               0
2.0231                  0.755269       -44.61967       0.02831315        75.88773                0               0                0               0
2.0297                 0.7470221       -45.13942       0.02906517        71.33982                0               0                0               0
2.0363                  0.738526       -45.65968       0.02982311        66.76652                0               0                0               0
2.0429                 0.7297814       -46.17973         0.030586        62.16874                0               0                0               0
2.0495                 0.7207899       -46.69881       0.03135284         57.5474                0               0                0               0
2.05611                0.7115537       -47.21617        0.0321226        52.90341                0               0                0               0
2.06271                0.7020755       -47.73101       0.03289422         48.2377                0               0                0               0
2.06931                0.6923588       -48.24255       0.03366663         43.5512                0               0                0               0
2.07591                0.6824072       -48.74995       0.03443873        38.84482                0               0                0               0
2.08251                0.6722248       -49.25237       0.03520942         34.1195                0               0                0               0
2.08911                0.6618164       -49.74895       0.03597755        29.37614                0               0                0               0
2.09571                0.6511865       -50.23878       0.03674201        24.61566                0               0                0               0
2.10231                0.6403402       -50.72094       0.03750165        19.83894                0               0                0               0
2.10891                0.6292827       -51.19446       0.03825532        15.04687                0               0                0               0
2.11551                0.6180192       -51.65831       0.03900188        10.24034                0               0                0               0
2.12211                0.6065552        -52.1114       0.03974016        5.420196                0               0                0               0
2.12871                0.5948959       -52.55257       0.04046905       0.5872992                0               0                0               0
2.13531                 0.583047       -52.98058       0.04118739       -4.257514                0               0                0               0
2.14191                0.5710138       -53.39405       0.04189406       -9.113418                0               0                0               0
2.14851                0.5588018       -53.79149       0.04258794        -13.9796                0               0                0               0
2.15512                0.5464167       -54.17127       0.04326794       -18.85525                0               0                0               0
2.16172                0.5338642       -54.53154       0.04393298       -23.73959                0               0                0               0
2.16832                0.5211502       -54.87027       0.04458199       -28.63183                0               0                0               0
2.17492                0.5082808       -55.18516       0.04521395       -33.53122                0               0                0               0
2.18152                0.4952627       -55.47364       0.04582785       -38.43699                0               0                0               0
2.18812                0.4821028       -55.73276       0.04642269       -43.34839                0               0                0               0
2.19472                0.4688088       -55.95922       0.04699754        -48.2647                0               0                0               0
2.20132                0.4553894       -56.14924       0.04755149       -53.18518                0               0                0               0
2.20792                0.4418538       -56.29851       0.04808364       -58.10911                0               0                0               0
2.21452                0.4282129       -56.40213       0.04859319       -63.03579                0               0                0               0
2.22112                0.4144788       -56.45446       0.04907931        -67.9645                0               0                0               0
2.22772                0.4006655       -56.44905       0.04954127       -72.89455                0               0                0               0
2.23432                0.3867892       -56.37851       0.04997834       -77.82525                0               0                0               0
2.24092                0.3728684       -56.23437       0.05038988       -82.75591                0               0                0               0
2.24752                0.3589246       -56.00688       0.05077528       -87.68583                0               0                0               0
2.25413                0.3449828       -55.68485       0.05113399       -92.61436                0               0                0               0
2.26073                0.3310719        -55.2554       0.05146548        -97.5408                0               0                0               0
2.26733                0.3172255       -54.70378       0.05176933       -102.4645                0               0                0               0
2.27393                0.3034831       -54.01309       0.05204513       -107.3847                0               0                0               0
2.28053                0.2898902       -53.16402       0.05229255       -112.3009                0               0                0               0
2.28713                0.2765004       -52.13464       0.05251133       -117.2123                0               0                0               0
2.29373                0.2633757       -50.90032       0.05270121       -122.1182                0               0                0               0