! TOUCHSTONE file generated by CST MICROWAVE STUDIO
! Date and time: Tue Mar 11 13:58:27 2025
! Project name: transverse.cst
! Parameters = {Fracture=1; B=12.5; D=160; F=25; Feed=2.85625; L=100; M=30; R=0.384908; S=2; Theta=270; length=57.125; wave=114.25}
! Header version: 2024
! Port assignment regex: !\s*Touchstone port\s*([0-9]+)\s*=\s*(CST MWS port|CST DES external port|CST DES block port)\s*(.+)\s* \(\"(.*)\"\)(\s*mode\s*([0-9]+))?.*
! Touchstone port assignment:
! Touchstone port 1 = CST MWS port 1 ("")
! Touchstone port 2 = CST MWS port 2 ("")
# GHz S MA R 50
1                      0.9975242       -10.02122     0.0004685271        164.5018                0               0                0               0
1.0066                 0.9974652       -10.10874     0.0004690838        158.8801                0               0                0               0
1.0132                 0.9974104       -10.19706     0.0004679616        153.3677                0               0                0               0
1.0198                 0.9973589       -10.28623     0.0004651418        147.9742                0               0                0               0
1.0264                 0.9973101       -10.37632     0.0004606185        142.7111                0               0                0               0
1.033                  0.9972628       -10.46739     0.0004543993        137.5931                0               0                0               0
1.0396                 0.9972159       -10.55948     0.0004465086        132.6381                0               0                0               0
1.0462                 0.9971681       -10.65264     0.0004369899         127.868                0               0                0               0
1.05281                0.9971183       -10.74689     0.0004259103        123.3101                0               0                0               0
1.05941                0.9970649       -10.84224     0.0004133645        118.9977                0               0                0               0
1.06601                0.9970068        -10.9387     0.0003994827        114.9718                0               0                0               0
1.07261                0.9969424       -11.03625     0.0003844382        111.2829                0               0                0               0
1.07921                0.9968705       -11.13488     0.0003684598        107.9923                0               0                0               0
1.08581                0.9967901       -11.23455     0.0003518468        105.1738                0               0                0               0
1.09241                0.9966998       -11.33521     0.0003349883        102.9143                0               0                0               0
1.09901                0.9965992       -11.43684     0.0003183867        101.3108                0               0                0               0
1.10561                0.9964872       -11.53935     0.0003026813        100.4635                0               0                0               0
1.11221                0.9963635        -11.6427     0.0002886666        100.4581                0               0                0               0
1.11881                0.9962275       -11.74681     0.0002772884        101.3358                0               0                0               0
1.12541                0.9960795       -11.85163     0.0002695953        103.0512                0               0                0               0
1.13201                0.9959195       -11.95709     0.0002666241        105.4328                0               0                0               0
1.13861                0.9957477       -12.06311     0.0002692267        108.1757                0               0                0               0
1.14521                0.9955647       -12.16966     0.0002778945        110.8917                0               0                0               0
1.15182                0.9953713       -12.27668     0.0002926697         113.205                0               0                0               0
1.15842                0.9951685       -12.38412     0.0003131905        114.8405                0               0                0               0
1.16502                 0.994957       -12.49196     0.0003388317        115.6596                0               0                0               0
1.17162                0.9947382       -12.60018     0.0003688599        115.6421                0               0                0               0
1.17822                0.9945131       -12.70876     0.0004025473        114.8439                0               0                0               0
1.18482                0.9942831       -12.81773     0.0004392307        113.3569                0               0                0               0
1.19142                0.9940495       -12.92708     0.0004783302        111.2826                0               0                0               0
1.19802                0.9938132       -13.03687     0.0005193469        108.7171                0               0                0               0
1.20462                0.9935756       -13.14712      0.000561851        105.7452                0               0                0               0
1.21122                0.9933377       -13.25791      0.000605469         102.439                0               0                0               0
1.21782                0.9931001       -13.36929     0.0006498705        98.85867                0               0                0               0
1.22442                0.9928638       -13.48135     0.0006947595        95.05376                0               0                0               0
1.23102                0.9926292       -13.59416     0.0007398661        91.06525                0               0                0               0
1.23762                0.9923966       -13.70782      0.000784941          86.927                0               0                0               0
1.24422                0.9921661       -13.82242     0.0008297513        82.66717                0               0                0               0
1.25083                0.9919374       -13.93805     0.0008740775        78.30939                0               0                0               0
1.25743                0.9917103       -14.05482      0.000917712        73.87363                0               0                0               0
1.26403                0.9914839        -14.1728     0.0009604571        69.37696                0               0                0               0
1.27063                0.9912574       -14.29209      0.001002125        64.83419                0               0                0               0
1.27723                0.9910299       -14.41277      0.001042537        60.25828                0               0                0               0
1.28383                0.9908001        -14.5349      0.001081525        55.66078                0               0                0               0
1.29043                0.9905665       -14.65854       0.00111893         51.0521                0               0                0               0
1.29703                0.9903279       -14.78374      0.001154603        46.44182                0               0                0               0
1.30363                0.9900824       -14.91054      0.001188407        41.83883                0               0                0               0
1.31023                0.9898286       -15.03894      0.001220219        37.25159                0               0                0               0
1.31683                0.9895649       -15.16897      0.001249928         32.6882                0               0                0               0
1.32343                0.9892897       -15.30062       0.00127744        28.15661                0               0                0               0
1.33003                0.9890015       -15.43385      0.001302675        23.66467                0               0                0               0
1.33663                 0.988699       -15.56865      0.001325575        19.22024                0               0                0               0
1.34323                 0.988381       -15.70498      0.001346102        14.83129                0               0                0               0
1.34984                0.9880465       -15.84277      0.001364242        10.50597                0               0                0               0
1.35644                0.9876947       -15.98199      0.001380005        6.252641                0               0                0               0
1.36304                0.9873251       -16.12255      0.001393432        2.079942                0               0                0               0
1.36964                0.9869372       -16.26441      0.001404593       -2.003213                0               0                0               0
1.37624                0.9865312       -16.40749      0.001413595       -5.987622                0               0                0               0
1.38284                0.9861069       -16.55174      0.001420582       -9.863848                0               0                0               0
1.38944                0.9856651       -16.69709      0.001425742       -13.62229                0               0                0               0
1.39604                 0.985206        -16.8435      0.001429306       -17.25333                0               0                0               0
1.40264                0.9847308       -16.99093      0.001431558       -20.74753                0               0                0               0
1.40924                0.9842404       -17.13934       0.00143283        -24.0959                0               0                0               0
1.41584                0.9837359       -17.28874      0.001433513       -27.29031                0               0                0               0
1.42244                0.9832185       -17.43911      0.001434052       -30.32393                0               0                0               0
1.42904                0.9826896       -17.59048      0.001434949       -33.19186                0               0                0               0
1.43564                0.9821505       -17.74286      0.001436763       -35.89176                0               0                0               0
1.44224                0.9816025       -17.89632      0.001440097       -38.42462                0               0                0               0
1.44884                0.9810466       -18.05092      0.001445597       -40.79543                0               0                0               0
1.45545                0.9804842       -18.20674      0.001453937       -43.01388                0               0                0               0
1.46205                0.9799158       -18.36386      0.001465798       -45.09472                0               0                0               0
1.46865                0.9793427       -18.52241      0.001481855       -47.05787                0               0                0               0
1.47525                0.9787649       -18.68251      0.001502749       -48.92811                0               0                0               0
1.48185                0.9781828       -18.84427      0.001529066       -50.73426                0               0                0               0
1.48845                0.9775963       -19.00784      0.001561311       -52.50791                0               0                0               0
1.49505                 0.977005       -19.17335      0.001599897       -54.28187                0               0                0               0
1.50165                0.9764082       -19.34094      0.001645123       -56.08836                0               0                0               0
1.50825                0.9758049       -19.51075      0.001697176       -57.95739                0               0                0               0
1.51485                0.9751939       -19.68291      0.001756127       -59.91533                0               0                0               0
1.52145                0.9745735       -19.85755      0.001821938       -61.98395                0               0                0               0
1.52805                0.9739419       -20.03477      0.001894476        -64.1799                0               0                0               0
1.53465                0.9732972       -20.21469      0.001973527       -66.51468                0               0                0               0
1.54125                0.9726371        -20.3974      0.002058807       -68.99493                0               0                0               0
1.54785                0.9719591       -20.58296      0.002149985       -71.62304                0               0                0               0
1.55446                0.9712609       -20.77143       0.00224669       -74.39779                0               0                0               0
1.56106                0.9705401       -20.96284      0.002348525       -77.31517                0               0                0               0
1.56766                 0.969794       -21.15723      0.002455083         -80.369                0               0                0               0
1.57426                0.9690203       -21.35459      0.002565945       -83.55162                0               0                0               0
1.58086                0.9682166        -21.5549      0.002680694       -86.85439                0               0                0               0
1.58746                 0.967381       -21.75815      0.002798917       -90.26812                0               0                0               0
1.59406                0.9665113       -21.96428      0.002920209       -93.78339                0               0                0               0
1.60066                0.9656062       -22.17324      0.003044176        -97.3908                0               0                0               0
1.60726                0.9646638       -22.38498      0.003170438       -101.0812                0               0                0               0
1.61386                0.9636837       -22.59942       0.00329863       -104.8455                0               0                0               0
1.62046                0.9626643       -22.81651        0.0034284       -108.6755                0               0                0               0
1.62706                 0.961606       -23.03616      0.003559422       -112.5628                0               0                0               0
1.63366                0.9605081       -23.25833       0.00369138       -116.4999                0               0                0               0
1.64026                0.9593711       -23.48295      0.003823985       -120.4795                0               0                0               0
1.64686                0.9581953       -23.70998       0.00395697       -124.4949                0               0                0               0
1.65347                0.9569817        -23.9394      0.004090087       -128.5397                0               0                0               0
1.66007                 0.955731       -24.17118       0.00422312        -132.608                0               0                0               0
1.66667                0.9544445       -24.40537      0.004355875        -136.694                0               0                0               0
1.67327                0.9531235       -24.64196      0.004488188       -140.7926                0               0                0               0
1.67987                0.9517693       -24.88104      0.004619927       -144.8989                0               0                0               0
1.68647                0.9503832       -25.12268      0.004750991       -149.0083                0               0                0               0
1.69307                0.9489666       -25.36698      0.004881315       -153.1165                0               0                0               0
1.69967                0.9475204       -25.61409      0.005010871       -157.2196                0               0                0               0
1.70627                0.9460457       -25.86418      0.005139666       -161.3137                0               0                0               0
1.71287                0.9445433       -26.11741      0.005267751       -165.3956                0               0                0               0
1.71947                0.9430134       -26.37401      0.005395219       -169.4622                0               0                0               0
1.72607                 0.941456       -26.63419      0.005522202       -173.5106                0               0                0               0
1.73267                0.9398708       -26.89822      0.005648884       -177.5383                0               0                0               0
1.73927                0.9382568       -27.16635       0.00577549        178.4568                0               0                0               0
1.74587                0.9366126       -27.43884      0.005902292        174.4765                0               0                0               0
1.75248                0.9349366       -27.71598       0.00602961        170.5224                0               0                0               0
1.75908                0.9332262       -27.99804      0.006157813        166.5955                0               0                0               0
1.76568                0.9314787       -28.28531      0.006287309        162.6965                0               0                0               0
1.77228                0.9296907       -28.57806      0.006418558        158.8257                0               0                0               0
1.77888                0.9278583       -28.87655      0.006552055        154.9829                0               0                0               0
1.78548                0.9259773       -29.18103      0.006688336        151.1675                0               0                0               0
1.79208                0.9240431       -29.49174      0.006827971        147.3785                0               0                0               0
1.79868                0.9220507        -29.8089      0.006971562        143.6143                0               0                0               0
1.80528                0.9199949        -30.1327      0.007119734        139.8729                0               0                0               0
1.81188                0.9178702       -30.46331      0.007273127        136.1519                0               0                0               0
1.81848                0.9156712        -30.8009      0.007432397        132.4483                0               0                0               0
1.82508                 0.913392       -31.14556      0.007598198         128.759                0               0                0               0
1.83168                 0.911027       -31.49743      0.007771181        125.0802                0               0                0               0
1.83828                0.9085707       -31.85657      0.007951988        121.4082                0               0                0               0
1.84488                0.9060174       -32.22306      0.008141233        117.7386                0               0                0               0
1.85149                0.9033618       -32.59693      0.008339504        114.0673                0               0                0               0
1.85809                0.9005988       -32.97822      0.008547352        110.3897                0               0                0               0
1.86469                0.8977234       -33.36695      0.008765283        106.7014                0               0                0               0
1.87129                0.8947311       -33.76313       0.00899375         102.998                0               0                0               0
1.87789                0.8916173       -34.16678      0.009233151        99.27522                0               0                0               0
1.88449                 0.888378        -34.5779      0.009483825        95.52897                0               0                0               0
1.89109                0.8850094       -34.99651      0.009746039        91.75539                0               0                0               0
1.89769                0.8815078       -35.42267          0.01002        87.95093                0               0                0               0
1.90429                0.8778698       -35.85639       0.01030584        84.11237                0               0                0               0
1.91089                0.8740923       -36.29776       0.01060363        80.23686                0               0                0               0
1.91749                0.8701717       -36.74687       0.01091335        76.32193                0               0                0               0
1.92409                0.8661052       -37.20383       0.01123495        72.36549                0               0                0               0
1.93069                0.8618895       -37.66879       0.01156827        68.36586                0               0                0               0
1.93729                0.8575211       -38.14192       0.01191311        64.32171                0               0                0               0
1.94389                0.8529963       -38.62345       0.01226921        60.23211                0               0                0               0
1.9505                 0.8483112       -39.11361       0.01263625        56.09645                0               0                0               0
1.9571                 0.8434614       -39.61267       0.01301384        51.91444                0               0                0               0
1.9637                 0.8384422       -40.12093       0.01340157        47.68609                0               0                0               0
1.9703                 0.8332477       -40.63874       0.01379894        43.41165                0               0                0               0
1.9769                  0.827872       -41.16643       0.01420544        39.09161                0               0                0               0
1.9835                  0.822308       -41.70438       0.01462051        34.72668                0               0                0               0
1.9901                 0.8165483       -42.25297       0.01504355         30.3177                0               0                0               0
1.9967                 0.8105842       -42.81259       0.01547392        25.86569                0               0                0               0
2.0033                 0.8044064       -43.38362       0.01591097        21.37177                0               0                0               0
2.0099                 0.7980048       -43.96644       0.01635399        16.83717                0               0                0               0
2.0165                 0.7913685        -44.5614       0.01680228        12.26318                0               0                0               0
2.0231                 0.7844855       -45.16883       0.01725511        7.651158                0               0                0               0
2.0297                 0.7773435       -45.78901        0.0177117        3.002493                0               0                0               0
2.0363                 0.7699294       -46.42219       0.01817129       -1.681388                0               0                0               0
2.0429                 0.7622295       -47.06855        0.0186331       -6.399056                0               0                0               0
2.0495                 0.7542295       -47.72819       0.01909632       -11.14907                0               0                0               0
2.05611                0.7459153       -48.40115       0.01956015       -15.92999                0               0                0               0
2.06271                0.7372721       -49.08738       0.02002377        -20.7404                0               0                0               0
2.06931                0.7282855       -49.78672       0.02048637        -25.5789                0               0                0               0
2.07591                0.7189408        -50.4989       0.02094711       -30.44411                0               0                0               0
2.08251                0.7092242       -51.22352       0.02140518       -35.33468                0               0                0               0
2.08911                0.6991219        -51.9601       0.02185976       -40.24928                0               0                0               0
2.09571                0.6886214       -52.70796       0.02231003       -45.18662                0               0                0               0
2.10231                0.6777106       -53.46629       0.02275517       -50.14544                0               0                0               0
2.10891                0.6663786       -54.23413       0.02319437       -55.12452                0               0                0               0
2.11551                 0.654616       -55.01032       0.02362684       -60.12267                0               0                0               0
2.12211                0.6424147       -55.79352       0.02405179       -65.13873                0               0                0               0
2.12871                 0.629768        -56.5822       0.02446844       -70.17157                0               0                0               0
2.13531                0.6166716       -57.37458       0.02487603       -75.22011                0               0                0               0
2.14191                0.6031226       -58.16864       0.02527382       -80.28328                0               0                0               0
2.14851                0.5891204        -58.9621       0.02566107       -85.36006                0               0                0               0
2.15512                0.5746666       -59.75238       0.02603707       -90.44945                0               0                0               0
2.16172                0.5597652       -60.53654       0.02640113       -95.55048                0               0                0               0
2.16832                0.5444227       -61.31129       0.02675259       -100.6622                0               0                0               0
2.17492                 0.528648       -62.07288        0.0270908       -105.7837                0               0                0               0
2.18152                0.5124528       -62.81707       0.02741514       -110.9141                0               0                0               0
2.18812                0.4958516       -63.53904       0.02772501       -116.0525                0               0                0               0
2.19472                0.4788619       -64.23328       0.02801985       -121.1981                0               0                0               0
2.20132                0.4615037       -64.89348       0.02829911         -126.35                0               0                0               0
2.20792                0.4438007       -65.51236        0.0285623       -131.5074                0               0                0               0
2.21452                0.4257794       -66.08145       0.02880893       -136.6695                0               0                0               0
2.22112                0.4074701       -66.59091       0.02903855       -141.8356                0               0                0               0
2.22772                0.3889066        -67.0291       0.02925077       -147.0049                0               0                0               0
2.23432                0.3701268       -67.38226       0.02944519       -152.1765                0               0                0               0
2.24092                0.3511734       -67.63394       0.02962147       -157.3499                0               0                0               0
2.24752                 0.332094       -67.76426       0.02977931       -162.5242                0               0                0               0
2.25413                0.3129425       -67.74904       0.02991844       -167.6987                0               0                0               0
2.26073                0.2937808       -67.55862       0.03003862       -172.8726                0               0                0               0
2.26733                0.2746794        -67.1562       0.03013966       -178.0454                0               0                0               0
2.27393                0.2557216       -66.49592       0.03022141        176.7839                0               0                0               0
2.28053                0.2370061       -65.52006       0.03028373        171.6157                0               0                0               0
2.28713                0.2186529       -64.15588       0.03032656         166.451                0               0                0               0
2.29373                0.2008106        -62.3117       0.03034986        161.2903                0               0                0               0