! TOUCHSTONE file generated by CST MICROWAVE STUDIO
! Date and time: Tue Mar 11 13:57:48 2025
! Project name: transverse.cst
! Parameters = {Fracture=1; B=12.5; D=160; F=25; Feed=2.85625; L=100; M=30; R=0.384908; S=2; Theta=180; length=57.125; wave=114.25}
! Header version: 2024
! Port assignment regex: !\s*Touchstone port\s*([0-9]+)\s*=\s*(CST MWS port|CST DES external port|CST DES block port)\s*(.+)\s* \(\"(.*)\"\)(\s*mode\s*([0-9]+))?.*
! Touchstone port assignment:
! Touchstone port 1 = CST MWS port 1 ("")
! Touchstone port 2 = CST MWS port 2 ("")
# GHz S MA R 50
1                       0.997524        -10.0212     0.0004685154        164.5007                0               0                0               0
1.0066                 0.9974652       -10.10872     0.0004690718        158.8792                0               0                0               0
1.0132                 0.9974103       -10.19703     0.0004679492        153.3671                0               0                0               0
1.0198                 0.9973588        -10.2862     0.0004651291        147.9737                0               0                0               0
1.0264                   0.99731        -10.3763     0.0004606053        142.7109                0               0                0               0
1.033                  0.9972627       -10.46736     0.0004543857        137.5932                0               0                0               0
1.0396                 0.9972159       -10.55946     0.0004464947        132.6384                0               0                0               0
1.0462                 0.9971681       -10.65262     0.0004369758        127.8686                0               0                0               0
1.05281                0.9971183       -10.74686      0.000425896        123.3109                0               0                0               0
1.05941                 0.997065       -10.84222     0.0004133502        118.9988                0               0                0               0
1.06601                0.9970068       -10.93867     0.0003994685        114.9733                0               0                0               0
1.07261                0.9969423       -11.03622     0.0003844241        111.2848                0               0                0               0
1.07921                0.9968705       -11.13485     0.0003684462        107.9946                0               0                0               0
1.08581                  0.99679       -11.23452     0.0003518339        105.1766                0               0                0               0
1.09241                   0.9967       -11.33519     0.0003349767        102.9175                0               0                0               0
1.09901                0.9965992       -11.43681     0.0003183766        101.3145                0               0                0               0
1.10561                0.9964873       -11.53933     0.0003026734        100.4678                0               0                0               0
1.11221                0.9963635       -11.64267     0.0002886613         100.463                0               0                0               0
1.11881                0.9962277       -11.74679     0.0002772865        101.3412                0               0                0               0
1.12541                0.9960797       -11.85161     0.0002695972        103.0569                0               0                0               0
1.13201                0.9959197       -11.95706     0.0002666305        105.4385                0               0                0               0
1.13861                0.9957479       -12.06309     0.0002692376        108.1812                0               0                0               0
1.14521                 0.995565       -12.16964     0.0002779097        110.8968                0               0                0               0
1.15182                0.9953717       -12.27665     0.0002926887        113.2094                0               0                0               0
1.15842                0.9951687        -12.3841     0.0003132127        114.8441                0               0                0               0
1.16502                0.9949573       -12.49194     0.0003388563        115.6625                0               0                0               0
1.17162                0.9947385       -12.60016     0.0003688863        115.6444                0               0                0               0
1.17822                0.9945135       -12.70875      0.000402575        114.8456                0               0                0               0
1.18482                0.9942835       -12.81771     0.0004392592        113.3582                0               0                0               0
1.19142                0.9940498       -12.92707     0.0004783591        111.2835                0               0                0               0
1.19802                0.9938136       -13.03686     0.0005193759        108.7177                0               0                0               0
1.20462                0.9935759       -13.14711       0.00056188        105.7456                0               0                0               0
1.21122                0.9933381        -13.2579     0.0006054976        102.4393                0               0                0               0
1.21782                0.9931005       -13.36928     0.0006498986        98.85884                0               0                0               0
1.22442                0.9928642       -13.48134      0.000694787        95.05384                0               0                0               0
1.23102                0.9926296       -13.59415     0.0007398928        91.06526                0               0                0               0
1.23762                 0.992397       -13.70781     0.0007849668        86.92695                0               0                0               0
1.24422                0.9921664       -13.82242      0.000829776        82.66709                0               0                0               0
1.25083                0.9919379       -13.93805     0.0008741011        78.30927                0               0                0               0
1.25743                0.9917105       -14.05482     0.0009177342        73.87349                0               0                0               0
1.26403                0.9914841        -14.1728      0.000960478        69.37681                0               0                0               0
1.27063                0.9912577        -14.2921      0.001002145        64.83403                0               0                0               0
1.27723                0.9910302       -14.41277      0.001042555        60.25812                0               0                0               0
1.28383                0.9908003       -14.53491      0.001081542        55.66062                0               0                0               0
1.29043                0.9905668       -14.65855      0.001118945        51.05195                0               0                0               0
1.29703                0.9903281       -14.78375      0.001154616        46.44167                0               0                0               0
1.30363                0.9900825       -14.91055      0.001188419         41.8387                0               0                0               0
1.31023                0.9898288       -15.03895      0.001220229        37.25147                0               0                0               0
1.31683                 0.989565       -15.16898      0.001249937         32.6881                0               0                0               0
1.32343                0.9892898       -15.30063      0.001277446        28.15653                0               0                0               0
1.33003                0.9890016       -15.43386       0.00130268         23.6646                0               0                0               0
1.33663                 0.988699       -15.56866      0.001325578        19.22019                0               0                0               0
1.34323                 0.988381       -15.70499      0.001346104        14.83127                0               0                0               0
1.34984                0.9880465       -15.84279      0.001364242        10.50597                0               0                0               0
1.35644                0.9876947         -15.982      0.001380003        6.252672                0               0                0               0
1.36304                 0.987325       -16.12256      0.001393428            2.08                0               0                0               0
1.36964                0.9869371       -16.26442      0.001404588       -2.003121                0               0                0               0
1.37624                 0.986531        -16.4075      0.001413588       -5.987494                0               0                0               0
1.38284                0.9861068       -16.55174      0.001420574       -9.863682                0               0                0               0
1.38944                0.9856649       -16.69709      0.001425732       -13.62209                0               0                0               0
1.39604                0.9852059        -16.8435      0.001429296       -17.25308                0               0                0               0
1.40264                0.9847307       -16.99093      0.001431546       -20.74723                0               0                0               0
1.40924                0.9842402       -17.13935      0.001432817       -24.09555                0               0                0               0
1.41584                0.9837357       -17.28874      0.001433499        -27.2899                0               0                0               0
1.42244                0.9832183       -17.43911      0.001434038       -30.32347                0               0                0               0
1.42904                0.9826894       -17.59047      0.001434935       -33.19134                0               0                0               0
1.43564                0.9821503       -17.74286      0.001436748       -35.89118                0               0                0               0
1.44224                0.9816022       -17.89632      0.001440082       -38.42398                0               0                0               0
1.44884                0.9810464       -18.05091      0.001445583       -40.79474                0               0                0               0
1.45545                0.9804839       -18.20673      0.001453922       -43.01313                0               0                0               0
1.46205                0.9799157       -18.36386      0.001465784       -45.09391                0               0                0               0
1.46865                0.9793426       -18.52241      0.001481842       -47.05702                0               0                0               0
1.47525                0.9787647        -18.6825      0.001502737       -48.92722                0               0                0               0
1.48185                0.9781827       -18.84426      0.001529055       -50.73334                0               0                0               0
1.48845                0.9775962       -19.00783      0.001561302       -52.50698                0               0                0               0
1.49505                0.9770049       -19.17334      0.001599888       -54.28094                0               0                0               0
1.50165                 0.976408       -19.34093      0.001645116       -56.08743                0               0                0               0
1.50825                0.9758048       -19.51074      0.001697171       -57.95647                0               0                0               0
1.51485                0.9751938        -19.6829      0.001756123       -59.91444                0               0                0               0
1.52145                0.9745734       -19.85753      0.001821936       -61.98308                0               0                0               0
1.52805                0.9739419       -20.03476      0.001894476       -64.17907                0               0                0               0
1.53465                0.9732972       -20.21469      0.001973527       -66.51389                0               0                0               0
1.54125                0.9726371       -20.39739      0.002058809       -68.99419                0               0                0               0
1.54785                0.9719591       -20.58295      0.002149987       -71.62235                0               0                0               0
1.55446                 0.971261       -20.77142      0.002246692       -74.39715                0               0                0               0
1.56106                0.9705401       -20.96284      0.002348529       -77.31457                0               0                0               0
1.56766                0.9697939       -21.15722      0.002455087       -80.36844                0               0                0               0
1.57426                0.9690202       -21.35458      0.002565949       -83.55111                0               0                0               0
1.58086                0.9682167       -21.55489      0.002680699       -86.85392                0               0                0               0
1.58746                0.9673809       -21.75813      0.002798921       -90.26769                0               0                0               0
1.59406                0.9665114       -21.96427      0.002920213         -93.783                0               0                0               0
1.60066                0.9656061       -22.17323       0.00304418       -97.39045                0               0                0               0
1.60726                0.9646639       -22.38497      0.003170442       -101.0808                0               0                0               0
1.61386                0.9636836       -22.59942      0.003298632       -104.8453                0               0                0               0
1.62046                0.9626644        -22.8165      0.003428403       -108.6752                0               0                0               0
1.62706                0.9616059       -23.03616      0.003559423       -112.5626                0               0                0               0
1.63366                0.9605081       -23.25832       0.00369138       -116.4997                0               0                0               0
1.64026                0.9593711       -23.48294      0.003823985       -120.4793                0               0                0               0
1.64686                0.9581953       -23.70997      0.003956968       -124.4948                0               0                0               0
1.65347                0.9569816       -23.93939      0.004090085       -128.5396                0               0                0               0
1.66007                0.9557311       -24.17118      0.004223117       -132.6078                0               0                0               0
1.66667                0.9544446       -24.40535       0.00435587       -136.6939                0               0                0               0
1.67327                0.9531236       -24.64195      0.004488182       -140.7925                0               0                0               0
1.67987                0.9517694       -24.88103       0.00461992       -144.8988                0               0                0               0
1.68647                0.9503832       -25.12266      0.004750983       -149.0082                0               0                0               0
1.69307                0.9489666       -25.36697      0.004881307       -153.1164                0               0                0               0
1.69967                0.9475204       -25.61408      0.005010861       -157.2195                0               0                0               0
1.70627                0.9460458       -25.86416      0.005139655       -161.3137                0               0                0               0
1.71287                0.9445434        -26.1174      0.005267739       -165.3956                0               0                0               0
1.71947                0.9430135       -26.37399      0.005395205       -169.4621                0               0                0               0
1.72607                 0.941456       -26.63418      0.005522188       -173.5105                0               0                0               0
1.73267                0.9398708       -26.89821      0.005648868       -177.5383                0               0                0               0
1.73927                0.9382568       -27.16634      0.005775473        178.4568                0               0                0               0
1.74587                0.9366127       -27.43883      0.005902274        174.4766                0               0                0               0
1.75248                0.9349367       -27.71597      0.006029593        170.5225                0               0                0               0
1.75908                0.9332264       -27.99803      0.006157794        166.5955                0               0                0               0
1.76568                0.9314788        -28.2853      0.006287291        162.6965                0               0                0               0
1.77228                0.9296907       -28.57805      0.006418539        158.8257                0               0                0               0
1.77888                0.9278583       -28.87654      0.006552035         154.983                0               0                0               0
1.78548                0.9259774       -29.18103      0.006688316        151.1676                0               0                0               0
1.79208                0.9240431       -29.49174      0.006827952        147.3786                0               0                0               0
1.79868                0.9220508       -29.80889      0.006971544        143.6144                0               0                0               0
1.80528                0.9199949       -30.13269      0.007119715         139.873                0               0                0               0
1.81188                0.9178703       -30.46331      0.007273109         136.152                0               0                0               0
1.81848                0.9156713       -30.80088      0.007432379        132.4484                0               0                0               0
1.82508                0.9133921       -31.14556      0.007598181        128.7591                0               0                0               0
1.83168                0.9110271       -31.49742      0.007771165        125.0803                0               0                0               0
1.83828                0.9085708       -31.85656      0.007951973        121.4083                0               0                0               0
1.84488                0.9060175       -32.22305      0.008141219        117.7387                0               0                0               0
1.85149                0.9033619       -32.59692      0.008339491        114.0674                0               0                0               0
1.85809                0.9005989       -32.97821      0.008547341        110.3898                0               0                0               0
1.86469                0.8977235       -33.36694      0.008765272        106.7015                0               0                0               0
1.87129                0.8947311       -33.76312      0.008993741        102.9981                0               0                0               0
1.87789                0.8916173       -34.16676      0.009233144        99.27529                0               0                0               0
1.88449                 0.888378       -34.57788      0.009483819        95.52903                0               0                0               0
1.89109                0.8850094        -34.9965      0.009746035        91.75545                0               0                0               0
1.89769                0.8815079       -35.42265          0.01002        87.95098                0               0                0               0
1.90429                0.8778699       -35.85638       0.01030584        84.11242                0               0                0               0
1.91089                0.8740923       -36.29775       0.01060363         80.2369                0               0                0               0
1.91749                0.8701718       -36.74685       0.01091336        76.32196                0               0                0               0
1.92409                0.8661053       -37.20382       0.01123495        72.36551                0               0                0               0
1.93069                0.8618896       -37.66877       0.01156828        68.36587                0               0                0               0
1.93729                0.8575212       -38.14191       0.01191312        64.32172                0               0                0               0
1.94389                0.8529964       -38.62343       0.01226922        60.23211                0               0                0               0
1.9505                 0.8483113       -39.11359       0.01263626        56.09644                0               0                0               0
1.9571                 0.8434616       -39.61265       0.01301386        51.91442                0               0                0               0
1.9637                 0.8384423       -40.12091       0.01340158        47.68606                0               0                0               0
1.9703                 0.8332479       -40.63871       0.01379896        43.41161                0               0                0               0
1.9769                 0.8278721        -41.1664       0.01420546        39.09157                0               0                0               0
1.9835                 0.8223082       -41.70436       0.01462053        34.72663                0               0                0               0
1.9901                 0.8165485       -42.25295       0.01504357        30.31765                0               0                0               0
1.9967                 0.8105844       -42.81257       0.01547394        25.86563                0               0                0               0
2.0033                 0.8044067        -43.3836       0.01591099         21.3717                0               0                0               0
2.0099                 0.7980051       -43.96642       0.01635402        16.83709                0               0                0               0
2.0165                 0.7913687       -44.56138       0.01680231         12.2631                0               0                0               0
2.0231                 0.7844858       -45.16881       0.01725513        7.651067                0               0                0               0
2.0297                 0.7773439       -45.78899       0.01771172        3.002398                0               0                0               0
2.0363                 0.7699297       -46.42218       0.01817132       -1.681491                0               0                0               0
2.0429                 0.7622298       -47.06853       0.01863313       -6.399162                0               0                0               0
2.0495                 0.7542299       -47.72818       0.01909635       -11.14918                0               0                0               0
2.05611                0.7459157       -48.40114       0.01956018        -15.9301                0               0                0               0
2.06271                0.7372725       -49.08737        0.0200238       -20.74052                0               0                0               0
2.06931                0.7282858       -49.78671        0.0204864       -25.57903                0               0                0               0
2.07591                0.7189411       -50.49888       0.02094714       -30.44424                0               0                0               0
2.08251                0.7092245       -51.22351       0.02140521       -35.33481                0               0                0               0
2.08911                0.6991224       -51.96009       0.02185979       -40.24941                0               0                0               0
2.09571                0.6886218       -52.70795       0.02231006       -45.18676                0               0                0               0
2.10231                0.6777109       -53.46629       0.02275519       -50.14558                0               0                0               0
2.10891                 0.666379       -54.23412       0.02319439       -55.12466                0               0                0               0
2.11551                0.6546164       -55.01032       0.02362687       -60.12281                0               0                0               0
2.12211                 0.642415       -55.79352       0.02405181       -65.13887                0               0                0               0
2.12871                0.6297684        -56.5822       0.02446846       -70.17171                0               0                0               0
2.13531                 0.616672       -57.37458       0.02487605       -75.22025                0               0                0               0
2.14191                0.6031229       -58.16864       0.02527383       -80.28342                0               0                0               0
2.14851                0.5891207       -58.96211       0.02566109        -85.3602                0               0                0               0
2.15512                0.5746669       -59.75239       0.02603708       -90.44959                0               0                0               0
2.16172                0.5597655       -60.53655       0.02640115       -95.55062                0               0                0               0
2.16832                0.5444229        -61.3113       0.02675261       -100.6623                0               0                0               0
2.17492                0.5286482       -62.07289       0.02709081       -105.7839                0               0                0               0
2.18152                 0.512453       -62.81708       0.02741515       -110.9142                0               0                0               0
2.18812                0.4958519       -63.53905       0.02772502       -116.0526                0               0                0               0
2.19472                 0.478862       -64.23329       0.02801985       -121.1982                0               0                0               0
2.20132                0.4615039       -64.89349       0.02829911       -126.3501                0               0                0               0
2.20792                0.4438008       -65.51236        0.0285623       -131.5075                0               0                0               0
2.21452                0.4257796       -66.08146       0.02880893       -136.6697                0               0                0               0
2.22112                0.4074702       -66.59091       0.02903855       -141.8357                0               0                0               0
2.22772                0.3889067        -67.0291       0.02925076        -147.005                0               0                0               0
2.23432                 0.370127       -67.38227       0.02944518       -152.1767                0               0                0               0
2.24092                0.3511735       -67.63394       0.02962146         -157.35                0               0                0               0
2.24752                0.3320941       -67.76426        0.0297793       -162.5243                0               0                0               0
2.25413                0.3129427       -67.74904       0.02991842       -167.6988                0               0                0               0
2.26073                0.2937809       -67.55861        0.0300386       -172.8727                0               0                0               0
2.26733                0.2746795        -67.1562       0.03013964       -178.0455                0               0                0               0
2.27393                0.2557217       -66.49591       0.03022138        176.7837                0               0                0               0
2.28053                0.2370062       -65.52004       0.03028371        171.6156                0               0                0               0
2.28713                0.2186531       -64.15586       0.03032653        166.4509                0               0                0               0
2.29373                0.2008108       -62.31168       0.03034983        161.2902                0               0                0               0