! TOUCHSTONE file generated by CST MICROWAVE STUDIO
! Date and time: Tue Mar 11 13:57:54 2025
! Project name: transverse.cst
! Parameters = {Fracture=1; B=10; D=160; F=15; Feed=2.85625; L=100; M=10; R=0.384908; S=1; Theta=270; length=57.125; wave=114.25}
! Header version: 2024
! Port assignment regex: !\s*Touchstone port\s*([0-9]+)\s*=\s*(CST MWS port|CST DES external port|CST DES block port)\s*(.+)\s* \(\"(.*)\"\)(\s*mode\s*([0-9]+))?.*
! Touchstone port assignment:
! Touchstone port 1 = CST MWS port 1 ("")
! Touchstone port 2 = CST MWS port 2 ("")
# GHz S MA R 50
1                      0.9979263       -10.00747     0.0003324586        -122.135                0               0                0               0
1.00658                0.9978256       -10.09791     0.0003515584       -127.2764                0               0                0               0
1.01316                0.9977182       -10.18861     0.0003695959       -132.3848                0               0                0               0
1.01974                0.9976052       -10.27954     0.0003864659       -137.4507                0               0                0               0
1.02632                0.9974877       -10.37067     0.0004020687       -142.4649                0               0                0               0
1.03289                0.9973668       -10.46199      0.000416311       -147.4184                0               0                0               0
1.03947                0.9972437       -10.55351     0.0004291075       -152.3017                0               0                0               0
1.04605                0.9971197       -10.64524      0.000440382       -157.1046                0               0                0               0
1.05263                 0.996996       -10.73722     0.0004500696       -161.8162                0               0                0               0
1.05921                0.9968735       -10.82947     0.0004581181       -166.4244                0               0                0               0
1.06579                0.9967535       -10.92205     0.0004644908       -170.9157                0               0                0               0
1.07237                0.9966367       -11.01503     0.0004691688        -175.275                0               0                0               0
1.07895                0.9965238       -11.10847     0.0004721544       -179.4849                0               0                0               0
1.08553                0.9964154       -11.20246     0.0004734749        176.4739                0               0                0               0
1.09211                0.9963118       -11.29707      0.000473187        172.6237                0               0                0               0
1.09868                 0.996213        -11.3924     0.0004713822        168.9896                0               0                0               0
1.10526                0.9961189       -11.48853     0.0004681933        165.5998                0               0                0               0
1.11184                0.9960292       -11.58555     0.0004638022        162.4854                0               0                0               0
1.11842                0.9959433       -11.68354     0.0004584481        159.6803                0               0                0               0
1.125                  0.9958604       -11.78258      0.000452437        157.2199                0               0                0               0
1.13158                0.9957794       -11.88275     0.0004461513        155.1392                0               0                0               0
1.13816                0.9956991        -11.9841     0.0004400577        153.4695                0               0                0               0
1.14474                0.9956185       -12.08669     0.0004347112        152.2335                0               0                0               0
1.15132                0.9955358       -12.19056     0.0004307514        151.4385                0               0                0               0
1.15789                0.9954498       -12.29574     0.0004288868        151.0689                0               0                0               0
1.16447                0.9953589       -12.40223     0.0004298638        151.0789                0               0                0               0
1.17105                0.9952615       -12.51004     0.0004344173        151.3887                0               0                0               0
1.17763                0.9951564       -12.61916     0.0004432113        151.8873                0               0                0               0
1.18421                0.9950419       -12.72955     0.0004567773        152.4422                0               0                0               0
1.19079                 0.994917        -12.8412     0.0004754686        152.9162                0               0                0               0
1.19737                0.9947805       -12.95404     0.0004994413        153.1852                0               0                0               0
1.20395                0.9946315       -13.06803     0.0005286652         153.152                0               0                0               0
1.21053                0.9944694        -13.1831     0.0005629576        152.7534                0               0                0               0
1.21711                0.9942936       -13.29919     0.0006020274        151.9587                0               0                0               0
1.22368                0.9941039       -13.41622     0.0006455183        150.7644                0               0                0               0
1.23026                0.9939004       -13.53414     0.0006930429        149.1864                0               0                0               0
1.23684                0.9936831       -13.65287     0.0007442079        147.2524                0               0                0               0
1.24342                0.9934526       -13.77236     0.0007986283        144.9965                0               0                0               0
1.25                   0.9932097       -13.89254     0.0008559359        142.4549                0               0                0               0
1.25658                0.9929551       -14.01339     0.0009157826        139.6629                0               0                0               0
1.26316                0.9926899       -14.13485     0.0009778405        136.6539                0               0                0               0
1.26974                0.9924152       -14.25691      0.001041801        133.4584                0               0                0               0
1.27632                0.9921324       -14.37957      0.001107375        130.1038                0               0                0               0
1.28289                0.9918426       -14.50283      0.001174287        126.6145                0               0                0               0
1.28947                0.9915472       -14.62671      0.001242282        123.0122                0               0                0               0
1.29605                0.9912475       -14.75124      0.001311114         119.316                0               0                0               0
1.30263                0.9909448       -14.87648      0.001380554        115.5428                0               0                0               0
1.30921                  0.99064        -15.0025      0.001450387        111.7078                0               0                0               0
1.31579                0.9903341       -15.12937      0.001520412        107.8242                0               0                0               0
1.32237                 0.990028       -15.25717      0.001590441         103.904                0               0                0               0
1.32895                 0.989722         -15.386      0.001660305         99.9579                0               0                0               0
1.33553                0.9894166       -15.51598      0.001729849        95.99565                0               0                0               0
1.34211                0.9891117        -15.6472      0.001798936        92.02604                0               0                0               0
1.34868                0.9888072       -15.77978      0.001867451         88.0571                0               0                0               0
1.35526                0.9885025       -15.91382      0.001935298        84.09619                0               0                0               0
1.36184                0.9881969       -16.04944      0.002002406        80.15006                0               0                0               0
1.36842                0.9878894       -16.18673      0.002068728        76.22496                0               0                0               0
1.375                  0.9875787        -16.3258      0.002134244         72.3266                0               0                0               0
1.38158                0.9872635       -16.46672      0.002198965        68.46026                0               0                0               0
1.38816                0.9869422       -16.60956       0.00226293        64.63074                0               0                0               0
1.39474                 0.986613       -16.75438      0.002326213        60.84238                0               0                0               0
1.40132                0.9862741       -16.90124      0.002388921        57.09907                0               0                0               0
1.40789                0.9859236       -17.05016      0.002451199        53.40418                0               0                0               0
1.41447                0.9855598       -17.20115      0.002513227        49.76056                0               0                0               0
1.42105                0.9851807       -17.35421      0.002575222        46.17048                0               0                0               0
1.42763                0.9847848       -17.50934      0.002637442        42.63558                0               0                0               0
1.43421                0.9843704        -17.6665      0.002700179        39.15682                0               0                0               0
1.44079                0.9839362       -17.82565      0.002763763        35.73444                0               0                0               0
1.44737                0.9834809       -17.98675      0.002828555        32.36787                0               0                0               0
1.45395                0.9830036       -18.14975       0.00289495        29.05576                0               0                0               0
1.46053                0.9825036       -18.31458      0.002963369        25.79585                0               0                0               0
1.46711                0.9819804       -18.48119      0.003034255        22.58509                0               0                0               0
1.47368                 0.981434        -18.6495      0.003108067        19.41951                0               0                0               0
1.48026                0.9808645       -18.81947      0.003185277        16.29438                0               0                0               0
1.48684                0.9802723       -18.99105      0.003266356        13.20419                0               0                0               0
1.49342                 0.979658       -19.16419      0.003351774        10.14281                0               0                0               0
1.5                    0.9790225       -19.33888      0.003441986        7.103542                0               0                0               0
1.50658                0.9783667       -19.51508      0.003537427        4.079333                0               0                0               0
1.51316                 0.977692       -19.69282      0.003638507        1.062886                0               0                0               0
1.51974                0.9769993       -19.87211      0.003745599       -1.953144                0               0                0               0
1.52632                0.9762903         -20.053      0.003859035       -4.975984                0               0                0               0
1.53289                0.9755661       -20.23553      0.003979106        -8.01258                0               0                0               0
1.53947                0.9748281        -20.4198      0.004106049       -11.06945                0               0                0               0
1.54605                0.9740773       -20.60592      0.004240054       -14.15253                0               0                0               0
1.55263                0.9733145       -20.79398      0.004381255       -17.26713                0               0                0               0
1.55921                0.9725406       -20.98415      0.004529736       -20.41778                0               0                0               0
1.56579                0.9717558       -21.17657      0.004685527       -23.60827                0               0                0               0
1.57237                0.9709604        -21.3714      0.004848612       -26.84157                0               0                0               0
1.57895                 0.970154       -21.56883      0.005018927       -30.11986                0               0                0               0
1.58553                 0.969336       -21.76904      0.005196363       -33.44459                0               0                0               0
1.59211                0.9685055       -21.97222      0.005380779       -36.81647                0               0                0               0
1.59868                0.9676608       -22.17856      0.005571989       -40.23558                0               0                0               0
1.60526                0.9668003       -22.38826       0.00576979       -43.70142                0               0                0               0
1.61184                0.9659216       -22.60147      0.005973941       -47.21296                0               0                0               0
1.61842                0.9650223       -22.81839      0.006184188       -50.76875                0               0                0               0
1.625                  0.9640992       -23.03916      0.006400258       -54.36695                0               0                0               0
1.63158                0.9631493       -23.26394       0.00662187       -58.00544                0               0                0               0
1.63816                 0.962169       -23.49283      0.006848732       -61.68183                0               0                0               0
1.64474                0.9611547       -23.72595      0.007080551       -65.39356                0               0                0               0
1.65132                0.9601023       -23.96338      0.007317035       -69.13793                0               0                0               0
1.65789                0.9590083       -24.20518      0.007557898       -72.91215                0               0                0               0
1.66447                0.9578685       -24.45138      0.007802865       -76.71337                0               0                0               0
1.67105                0.9566791       -24.70199      0.008051674       -80.53873                0               0                0               0
1.67763                0.9554365       -24.95701      0.008304079       -84.38535                0               0                0               0
1.68421                 0.954137       -25.21641      0.008559859       -88.25043                0               0                0               0
1.69079                0.9527772       -25.48013      0.008818816       -92.13119                0               0                0               0
1.69737                 0.951354       -25.74812      0.009080779       -96.02494                0               0                0               0
1.70395                0.9498649       -26.02031      0.009345614       -99.92909                0               0                0               0
1.71053                0.9483072       -26.29659      0.009613217       -103.8411                0               0                0               0
1.71711                0.9466791        -26.5769      0.009883529       -107.7587                0               0                0               0
1.72368                0.9449786       -26.86114       0.01015653       -111.6796                0               0                0               0
1.73026                0.9432047       -27.14921       0.01043223       -115.6017                0               0                0               0
1.73684                0.9413563       -27.44104       0.01071072       -119.5231                0               0                0               0
1.74342                0.9394331       -27.73656       0.01099211        -123.442                0               0                0               0
1.75                   0.9374344       -28.03572       0.01127657       -127.3568                0               0                0               0
1.75658                0.9353604       -28.33848       0.01156433       -131.2662                0               0                0               0
1.76316                0.9332114       -28.64483       0.01185566       -135.1689                0               0                0               0
1.76974                0.9309875       -28.95478       0.01215089       -139.0639                0               0                0               0
1.77632                0.9286893       -29.26837       0.01245041       -142.9506                0               0                0               0
1.78289                 0.926317       -29.58567       0.01275466       -146.8283                0               0                0               0
1.78947                 0.923871       -29.90679       0.01306412       -150.6968                0               0                0               0
1.79605                0.9213515       -30.23184       0.01337934       -154.5559                0               0                0               0
1.80263                0.9187585         -30.561       0.01370089       -158.4058                0               0                0               0
1.80921                0.9160913       -30.89444       0.01402941       -162.2469                0               0                0               0
1.81579                0.9133492        -31.2324       0.01436556       -166.0799                0               0                0               0
1.82237                 0.910531       -31.57509       0.01471003       -169.9056                0               0                0               0
1.82895                0.9076348       -31.92279       0.01506356       -173.7251                0               0                0               0
1.83553                0.9046582       -32.27577       0.01542688       -177.5396                0               0                0               0
1.84211                0.9015981       -32.63432       0.01580075        178.6492                0               0                0               0
1.84868                 0.898451       -32.99873       0.01618594        174.8397                0               0                0               0
1.85526                0.8952124        -33.3693        0.0165832        171.0301                0               0                0               0
1.86184                0.8918774       -33.74631       0.01699328        167.2184                0               0                0               0
1.86842                0.8884402       -34.13006       0.01741691        163.4026                0               0                0               0
1.875                  0.8848946        -34.5208       0.01785478        159.5804                0               0                0               0
1.88158                0.8812337       -34.91879       0.01830756        155.7497                0               0                0               0
1.88816                  0.87745       -35.32422       0.01877585        151.9081                0               0                0               0
1.89474                0.8735356        -35.7373       0.01926023        148.0536                0               0                0               0
1.90132                 0.869482       -36.15816       0.01976119        144.1839                0               0                0               0
1.90789                0.8652808       -36.58691       0.02027917        140.2968                0               0                0               0
1.91447                0.8609231        -37.0236       0.02081453        136.3904                0               0                0               0
1.92105                0.8563998       -37.46826       0.02136755        132.4627                0               0                0               0
1.92763                0.8517018       -37.92084       0.02193844        128.5119                0               0                0               0
1.93421                0.8468202       -38.38125       0.02252731        124.5363                0               0                0               0
1.94079                0.8417461       -38.84934        0.0231342        120.5345                0               0                0               0
1.94737                 0.836471       -39.32493       0.02375905        116.5051                0               0                0               0
1.95395                0.8309867       -39.80775        0.0244017        112.4469                0               0                0               0
1.96053                0.8252853       -40.29752       0.02506192        108.3591                0               0                0               0
1.96711                0.8193596       -40.79388       0.02573939        104.2408                0               0                0               0
1.97368                 0.813203       -41.29643       0.02643369        100.0914                0               0                0               0
1.98026                0.8068095       -41.80472       0.02714433        95.91039                0               0                0               0
1.98684                0.8001738       -42.31827        0.0278707        91.69754                0               0                0               0
1.99342                0.7932912       -42.83655       0.02861216        87.45271                0               0                0               0
2                      0.7861582         -43.359       0.02936797        83.17591                0               0                0               0
2.00658                0.7787716       -43.88502        0.0301373        78.86726                0               0                0               0
2.01316                0.7711294         -44.414       0.03091928        74.52705                0               0                0               0
2.01974                0.7632299       -44.94527       0.03171295        70.15565                0               0                0               0
2.02632                0.7550728       -45.47817        0.0325173        65.75353                0               0                0               0
2.03289                0.7466579       -46.01199       0.03333125        61.32127                0               0                0               0
2.03947                0.7379862       -46.54601       0.03415368        56.85951                0               0                0               0
2.04605                 0.729059       -47.07952       0.03498341        52.36896                0               0                0               0
2.05263                0.7198784       -47.61174       0.03581922        47.85039                0               0                0               0
2.05921                0.7104472       -48.14192       0.03665985        43.30464                0               0                0               0
2.06579                0.7007683       -48.66927       0.03750399        38.73255                0               0                0               0
2.07237                0.6908451       -49.19298       0.03835032        34.13503                0               0                0               0
2.07895                0.6806817       -49.71223       0.03919747          29.513                0               0                0               0
2.08553                0.6702822       -50.22615       0.04004406        24.86741                0               0                0               0
2.09211                 0.659651       -50.73386       0.04088868        20.19922                0               0                0               0
2.09868                 0.648793       -51.23443       0.04172992        15.50939                0               0                0               0
2.10526                0.6377126       -51.72688       0.04256634        10.79892                0               0                0               0
2.11184                 0.626415       -52.21018        0.0433965        6.068777                0               0                0               0
2.11842                0.6149052       -52.68321       0.04421897        1.319945                0               0                0               0
2.125                  0.6031883       -53.14478       0.04503229       -3.446592                0               0                0               0
2.13158                0.5912698        -53.5936       0.04583504       -8.229866                0               0                0               0
2.13816                0.5791547       -54.02825       0.04662578       -13.02891                0               0                0               0
2.14474                0.5668489       -54.44716       0.04740312       -17.84276                0               0                0               0
2.15132                 0.554358       -54.84862       0.04816563       -22.67047                0               0                0               0
2.15789                 0.541688        -55.2307       0.04891196       -27.51109                0               0                0               0
2.16447                0.5288453       -55.59126       0.04964075        -32.3637                0               0                0               0
2.17105                0.5158367       -55.92789       0.05035067       -37.22738                0               0                0               0
2.17763                0.5026697       -56.23786       0.05104043       -42.10122                0               0                0               0
2.18421                0.4893522       -56.51813       0.05170878       -46.98432                0               0                0               0
2.19079                0.4758932       -56.76523       0.05235449       -51.87579                0               0                0               0
2.19737                0.4623028       -56.97524        0.0529764       -56.77477                0               0                0               0
2.20395                 0.448592       -57.14371       0.05357336       -61.68037                0               0                0               0
2.21053                0.4347735       -57.26559        0.0541443       -66.59176                0               0                0               0
2.21711                0.4208616       -57.33512       0.05468818       -71.50806                0               0                0               0
2.22368                0.4068725       -57.34577       0.05520404       -76.42845                0               0                0               0
2.23026                0.3928249       -57.29006       0.05569094        -81.3521                0               0                0               0
2.23684                0.3787399        -57.1595       0.05614803       -86.27817                0               0                0               0
2.24342                0.3646416       -56.94438       0.05657451       -91.20585                0               0                0               0
2.25                   0.3505578       -56.63366       0.05696966       -96.13431                0               0                0               0
2.25658                0.3365201        -56.2147        0.0573328       -101.0628                0               0                0               0
2.26316                0.3225649       -55.67321       0.05766333       -105.9904                0               0                0               0
2.26974                0.3087339       -54.99287       0.05796073       -110.9164                0               0                0               0
2.27632                 0.295075       -54.15533       0.05822457       -115.8399                0               0                0               0
2.28289                0.2816433       -53.13993       0.05845445       -120.7603                0               0                0               0
2.28947                 0.268502       -51.92374       0.05865006       -125.6765                0               0                0               0