! TOUCHSTONE file generated by CST MICROWAVE STUDIO
! Date and time: Tue Mar 11 13:57:56 2025
! Project name: transverse.cst
! Parameters = {Fracture=1; B=10; D=160; F=15; Feed=2.85625; L=100; M=20; R=0.384908; S=2; Theta=270; length=57.125; wave=114.25}
! Header version: 2024
! Port assignment regex: !\s*Touchstone port\s*([0-9]+)\s*=\s*(CST MWS port|CST DES external port|CST DES block port)\s*(.+)\s* \(\"(.*)\"\)(\s*mode\s*([0-9]+))?.*
! Touchstone port assignment:
! Touchstone port 1 = CST MWS port 1 ("")
! Touchstone port 2 = CST MWS port 2 ("")
# GHz S MA R 50
1                      0.9977385       -9.986356     0.0003960795       -164.9716                0               0                0               0
1.00658                0.9976523       -10.07522     0.0003991216       -169.1541                0               0                0               0
1.01316                0.9975631       -10.16454     0.0004011954       -173.2022                0               0                0               0
1.01974                0.9974713       -10.25432     0.0004023415       -177.1027                0               0                0               0
1.02632                0.9973771       -10.34457     0.0004026183        179.1588                0               0                0               0
1.03289                0.9972809       -10.43529     0.0004021047        175.5979                0               0                0               0
1.03947                0.9971829        -10.5265     0.0004009023         172.231                0               0                0               0
1.04605                0.9970834       -10.61823     0.0003991381        169.0748                0               0                0               0
1.05263                0.9969827       -10.71047     0.0003969673        166.1463                0               0                0               0
1.05921                 0.996881       -10.80327     0.0003945754        163.4613                0               0                0               0
1.06579                0.9967785       -10.89664     0.0003921799        161.0335                0               0                0               0
1.07237                0.9966752       -10.99061     0.0003900307        158.8728                0               0                0               0
1.07895                0.9965713       -11.08522     0.0003884086        156.9835                0               0                0               0
1.08553                0.9964668        -11.1805     0.0003876214        155.3618                0               0                0               0
1.09211                0.9963616       -11.27647     0.0003879959        153.9936                0               0                0               0
1.09868                0.9962554       -11.37318     0.0003898671         152.853                0               0                0               0
1.10526                0.9961482       -11.47064     0.0003935632        151.9014                0               0                0               0
1.11184                0.9960398        -11.5689     0.0003993883        151.0885                0               0                0               0
1.11842                0.9959296       -11.66798     0.0004076046        150.3545                0               0                0               0
1.125                  0.9958175       -11.76791     0.0004184171        149.6349                0               0                0               0
1.13158                0.9957029        -11.8687     0.0004319631        148.8655                0               0                0               0
1.13816                0.9955853       -11.97039     0.0004483074        147.9872                0               0                0               0
1.14474                0.9954645       -12.07299     0.0004674449        146.9507                0               0                0               0
1.15132                0.9953397       -12.17651     0.0004893081        145.7187                0               0                0               0
1.15789                0.9952105       -12.28097     0.0005137782        144.2666                0               0                0               0
1.16447                0.9950765       -12.38636     0.0005406978        142.5816                0               0                0               0
1.17105                0.9949372       -12.49269     0.0005698818        140.6611                0               0                0               0
1.17763                0.9947921       -12.59996     0.0006011287        138.5103                0               0                0               0
1.18421                0.9946408       -12.70817     0.0006342274        136.1403                0               0                0               0
1.19079                 0.994483       -12.81731     0.0006689643        133.5655                0               0                0               0
1.19737                0.9943183       -12.92738     0.0007051265        130.8029                0               0                0               0
1.20395                0.9941467       -13.03835     0.0007425048        127.8701                0               0                0               0
1.21053                0.9939678       -13.15024     0.0007808954        124.7849                0               0                0               0
1.21711                0.9937815       -13.26301      0.000820101        121.5647                0               0                0               0
1.22368                 0.993588       -13.37667     0.0008599311         118.226                0               0                0               0
1.23026                 0.993387       -13.49121     0.0009002026        114.7844                0               0                0               0
1.23684                0.9931788       -13.60662     0.0009407398        111.2544                0               0                0               0
1.24342                0.9929635       -13.72289     0.0009813748        107.6494                0               0                0               0
1.25                   0.9927412       -13.84004      0.001021948         103.982                0               0                0               0
1.25658                0.9925123       -13.95805      0.001062307        100.2637                0               0                0               0
1.26316                0.9922769       -14.07695      0.001102311        96.50521                0               0                0               0
1.26974                0.9920354       -14.19673      0.001141827        92.71652                0               0                0               0
1.27632                 0.991788       -14.31742      0.001180731        88.90691                0               0                0               0
1.28289                 0.991535       -14.43903      0.001218914         85.0851                0               0                0               0
1.28947                0.9912766        -14.5616      0.001256275        81.25929                0               0                0               0
1.29605                 0.991013       -14.68515      0.001292731        77.43728                0               0                0               0
1.30263                0.9907445       -14.80971      0.001328209        73.62643                0               0                0               0
1.30921                0.9904712       -14.93531      0.001362655         69.8338                0               0                0               0
1.31579                0.9901931       -15.06201      0.001396032        66.06615                0               0                0               0
1.32237                0.9899102       -15.18983      0.001428322        62.32994                0               0                0               0
1.32895                0.9896227       -15.31882      0.001459526        58.63137                0               0                0               0
1.33553                  0.98933       -15.44903      0.001489668        54.97637                0               0                0               0
1.34211                0.9890323       -15.58051      0.001518797        51.37061                0               0                0               0
1.34868                0.9887291       -15.71329      0.001546987         47.8194                0               0                0               0
1.35526                0.9884202       -15.84742      0.001574336        44.32773                0               0                0               0
1.36184                 0.988105       -15.98294      0.001600974        40.90014                0               0                0               0
1.36842                0.9877831       -16.11989      0.001627057        37.54067                0               0                0               0
1.375                  0.9874541       -16.25831      0.001652774        34.25278                0               0                0               0
1.38158                0.9871173       -16.39824      0.001678342         31.0392                0               0                0               0
1.38816                0.9867721       -16.53971      0.001704008        27.90184                0               0                0               0
1.39474                0.9864181       -16.68274       0.00173005        24.84166                0               0                0               0
1.40132                0.9860544       -16.82736      0.001756772        21.85851                0               0                0               0
1.40789                0.9856807       -16.97359      0.001784504        18.95107                0               0                0               0
1.41447                0.9852963       -17.12146      0.001813597        16.11668                0               0                0               0
1.42105                0.9849006       -17.27097      0.001844419         13.3513                0               0                0               0
1.42763                0.9844931       -17.42214      0.001877349         10.6495                0               0                0               0
1.43421                0.9840735         -17.575      0.001912774        8.004444                0               0                0               0
1.44079                0.9836413       -17.72954      0.001951074        5.407979                0               0                0               0
1.44737                0.9831963       -17.88578      0.001992625        2.850803                0               0                0               0
1.45395                 0.982738       -18.04373      0.002037782       0.3226569                0               0                0               0
1.46053                0.9822665       -18.20341      0.002086879       -2.187399                0               0                0               0
1.46711                0.9817814       -18.36485      0.002140214       -4.690682                0               0                0               0
1.47368                0.9812827       -18.52804      0.002198053       -7.198549                0               0                0               0
1.48026                0.9807705       -18.69303      0.002260616       -9.722072                0               0                0               0
1.48684                0.9802446       -18.85984       0.00232808       -12.27171                0               0                0               0
1.49342                0.9797052        -19.0285      0.002400572       -14.85706                0               0                0               0
1.5                    0.9791522       -19.19907      0.002478173       -17.48659                0               0                0               0
1.50658                0.9785858       -19.37157      0.002560919       -20.16754                0               0                0               0
1.51316                0.9780059       -19.54608      0.002648796       -22.90581                0               0                0               0
1.51974                0.9774125       -19.72265      0.002741754        -25.7059                0               0                0               0
1.52632                0.9768058       -19.90134      0.002839701       -28.57098                0               0                0               0
1.53289                0.9761853       -20.08224      0.002942514       -31.50294                0               0                0               0
1.53947                0.9755508       -20.26542      0.003050039       -34.50252                0               0                0               0
1.54605                0.9749023       -20.45096      0.003162099       -37.56939                0               0                0               0
1.55263                0.9742391       -20.63897      0.003278494       -40.70234                0               0                0               0
1.55921                0.9735606       -20.82954      0.003399012       -43.89939                0               0                0               0
1.56579                0.9728663       -21.02275      0.003523425       -47.15791                0               0                0               0
1.57237                0.9721553       -21.21873      0.003651501       -50.47479                0               0                0               0
1.57895                0.9714266       -21.41757      0.003783002       -53.84653                0               0                0               0
1.58553                 0.970679       -21.61936      0.003917688       -57.26935                0               0                0               0
1.59211                0.9699113       -21.82423      0.004055325       -60.73925                0               0                0               0
1.59868                0.9691219       -22.03226       0.00419568       -64.25214                0               0                0               0
1.60526                0.9683094       -22.24355      0.004338533       -67.80383                0               0                0               0
1.61184                 0.967472       -22.45821      0.004483674       -71.39018                0               0                0               0
1.61842                 0.966608       -22.67631      0.004630905       -75.00702                0               0                0               0
1.625                  0.9657153       -22.89795      0.004780048        -78.6503                0               0                0               0
1.63158                 0.964792       -23.12321      0.004930942       -82.31606                0               0                0               0
1.63816                 0.963836       -23.35215       0.00508345       -86.00043                0               0                0               0
1.64474                0.9628451       -23.58485       0.00523746       -89.69974                0               0                0               0
1.65132                0.9618172       -23.82136      0.005392884       -93.41042                0               0                0               0
1.65789                0.9607501       -24.06174      0.005549667       -97.12911                0               0                0               0
1.66447                0.9596417       -24.30605      0.005707784       -100.8526                0               0                0               0
1.67105                0.9584896       -24.55432      0.005867245        -104.578                0               0                0               0
1.67763                0.9572919        -24.8066      0.006028097       -108.3024                0               0                0               0
1.68421                0.9560465       -25.06291      0.006190425       -112.0234                0               0                0               0
1.69079                0.9547513        -25.3233      0.006354355       -115.7385                0               0                0               0
1.69737                0.9534043       -25.58779      0.006520053       -119.4459                0               0                0               0
1.70395                0.9520037       -25.85642      0.006687729       -123.1436                0               0                0               0
1.71053                0.9505477       -26.12921      0.006857638       -126.8302                0               0                0               0
1.71711                0.9490344       -26.40621      0.007030078       -130.5044                0               0                0               0
1.72368                0.9474622       -26.68745       0.00720539       -134.1654                0               0                0               0
1.73026                0.9458294       -26.97298      0.007383963       -137.8125                0               0                0               0
1.73684                0.9441344       -27.26283      0.007566224       -141.4455                0               0                0               0
1.74342                0.9423756       -27.55708      0.007752643       -145.0645                0               0                0               0
1.75                   0.9405513       -27.85578      0.007943729       -148.6698                0               0                0               0
1.75658                  0.93866         -28.159      0.008140022       -152.2623                0               0                0               0
1.76316                0.9366999       -28.46683      0.008342096       -155.8431                0               0                0               0
1.76974                0.9346694       -28.77935      0.008550554       -159.4135                0               0                0               0
1.77632                0.9325664       -29.09666      0.008766015       -162.9754                0               0                0               0
1.78289                0.9303891       -29.41888      0.008989119       -166.5307                0               0                0               0
1.78947                0.9281352       -29.74613      0.009220511       -170.0818                0               0                0               0
1.79605                0.9258027       -30.07852       0.00946084       -173.6313                0               0                0               0
1.80263                0.9233887       -30.41621      0.009710751       -177.1818                0               0                0               0
1.80921                0.9208906       -30.75933      0.009970877        179.2636                0               0                0               0
1.81579                0.9183053       -31.10802       0.01024183        175.7019                0               0                0               0
1.82237                0.9156297       -31.46245        0.0105242          172.13                0               0                0               0
1.82895                0.9128601       -31.82277       0.01081854        168.5448                0               0                0               0
1.83553                0.9099927       -32.18913       0.01112537        164.9432                0               0                0               0
1.84211                0.9070235        -32.5617       0.01144516        161.3221                0               0                0               0
1.84868                0.9039477       -32.94061       0.01177833        157.6787                0               0                0               0
1.85526                 0.900761       -33.32603       0.01212525          154.01                0               0                0               0
1.86184                 0.897458       -33.71809       0.01248622        150.3137                0               0                0               0
1.86842                0.8940337       -34.11693        0.0128615        146.5872                0               0                0               0
1.875                  0.8904822       -34.52265       0.01325127        142.8285                0               0                0               0
1.88158                0.8867979       -34.93539       0.01365564        139.0356                0               0                0               0
1.88816                0.8829748       -35.35522       0.01407466         135.207                0               0                0               0
1.89474                0.8790064       -35.78222       0.01450833        131.3413                0               0                0               0
1.90132                0.8748866       -36.21645       0.01495656        127.4374                0               0                0               0
1.90789                0.8706087       -36.65795       0.01541921        123.4944                0               0                0               0
1.91447                0.8661659       -37.10673       0.01589607        119.5119                0               0                0               0
1.92105                0.8615517       -37.56278       0.01638687        115.4893                0               0                0               0
1.92763                0.8567592       -38.02609       0.01689128        111.4266                0               0                0               0
1.93421                0.8517815       -38.49658       0.01740892        107.3239                0               0                0               0
1.94079                 0.846612       -38.97418       0.01793933        103.1814                0               0                0               0
1.94737                0.8412441       -39.45878       0.01848203         98.9995                0               0                0               0
1.95395                0.8356709       -39.95024       0.01903646        94.77879                0               0                0               0
1.96053                0.8298862        -40.4484       0.01960204        90.51996                0               0                0               0
1.96711                0.8238835       -40.95306       0.02017814        86.22381                0               0                0               0
1.97368                0.8176568         -41.464       0.02076406        81.89124                0               0                0               0
1.98026                0.8112003       -41.98096       0.02135909        77.52322                0               0                0               0
1.98684                0.8045081       -42.50366       0.02196248         73.1208                0               0                0               0
1.99342                0.7975751       -43.03178       0.02257344        68.68506                0               0                0               0
2                      0.7903961       -43.56496       0.02319115        64.21715                0               0                0               0
2.00658                0.7829662       -44.10281       0.02381475        59.71822                0               0                0               0
2.01316                0.7752813       -44.64491       0.02444338        55.18946                0               0                0               0
2.01974                0.7673372        -45.1908       0.02507614        50.63207                0               0                0               0
2.02632                0.7591303       -45.73996       0.02571211        46.04724                0               0                0               0
2.03289                0.7506574       -46.29185       0.02635035        41.43618                0               0                0               0
2.03947                0.7419154       -46.84587        0.0269899        36.80008                0               0                0               0
2.04605                0.7329023       -47.40138       0.02762981        32.14013                0               0                0               0
2.05263                 0.723616       -47.95768        0.0282691        27.45751                0               0                0               0
2.05921                0.7140551       -48.51401       0.02890677        22.75337                0               0                0               0
2.06579                0.7042187       -49.06952       0.02954185        18.02884                0               0                0               0
2.07237                0.6941064       -49.62335       0.03017332        13.28507                0               0                0               0
2.07895                0.6837186       -50.17451        0.0308002        8.523128                0               0                0               0
2.08553                0.6730559       -50.72195        0.0314215         3.74411                0               0                0               0
2.09211                0.6621199       -51.26451       0.03203621        -1.05093                0               0                0               0
2.09868                0.6509127       -51.80094       0.03264335        -5.86096                0               0                0               0
2.10526                0.6394371       -52.32987       0.03324196       -10.68497                0               0                0               0
2.11184                0.6276967       -52.84981       0.03383105       -15.52196                0               0                0               0
2.11842                0.6156958        -53.3591       0.03440969       -20.37097                0               0                0               0
2.125                  0.6034399       -53.85596       0.03497692       -25.23105                0               0                0               0
2.13158                0.5909349       -54.33841       0.03553183       -30.10127                0               0                0               0
2.13816                0.5781881        -54.8043       0.03607352       -34.98073                0               0                0               0
2.14474                0.5652075       -55.25122       0.03660111       -39.86852                0               0                0               0
2.15132                0.5520025       -55.67656       0.03711375       -44.76379                0               0                0               0
2.15789                0.5385834        -56.0774        0.0376106       -49.66567                0               0                0               0
2.16447                0.5249619       -56.45053       0.03809088       -54.57331                0               0                0               0
2.17105                0.5111512       -56.79239       0.03855381       -59.48591                0               0                0               0
2.17763                0.4971657       -57.09903       0.03899866       -64.40263                0               0                0               0
2.18421                0.4830214       -57.36607       0.03942473       -69.32268                0               0                0               0
2.19079                 0.468736       -57.58862       0.03983135       -74.24527                0               0                0               0
2.19737                0.4543292       -57.76121        0.0402179       -79.16962                0               0                0               0
2.20395                0.4398225        -57.8778       0.04058378       -84.09496                0               0                0               0
2.21053                0.4252397       -57.93156       0.04092847       -89.02053                0               0                0               0
2.21711                0.4106068        -57.9149       0.04125145       -93.94557                0               0                0               0
2.22368                0.3959527        -57.8193       0.04155226       -98.86934                0               0                0               0
2.23026                0.3813089        -57.6352       0.04183051       -103.7911                0               0                0               0
2.23684                0.3667105       -57.35192       0.04208581       -108.7101                0               0                0               0
2.24342                0.3521962        -56.9575       0.04231787       -113.6256                0               0                0               0
2.25                   0.3378085       -56.43857       0.04252641       -118.5368                0               0                0               0
2.25658                 0.323595       -55.78029       0.04271121       -123.4431                0               0                0               0
2.26316                0.3096081       -54.96621       0.04287211       -128.3438                0               0                0               0
2.26974                0.2959065       -53.97832       0.04300901        -133.238                0               0                0               0
2.27632                0.2825553       -52.79706       0.04312183       -138.1251                0               0                0               0
2.28289                0.2696269        -51.4017       0.04321059       -143.0043                0               0                0               0
2.28947                0.2572018       -49.77072       0.04327531       -147.8749                0               0                0               0