! TOUCHSTONE file generated by CST MICROWAVE STUDIO
! Date and time: Tue Mar 11 13:57:06 2025
! Project name: transverse.cst
! Parameters = {Fracture=1; B=12.5; D=160; F=25; Feed=2.85625; L=100; M=20; R=0.384908; S=1; Theta=90; length=57.125; wave=114.25}
! Header version: 2024
! Port assignment regex: !\s*Touchstone port\s*([0-9]+)\s*=\s*(CST MWS port|CST DES external port|CST DES block port)\s*(.+)\s* \(\"(.*)\"\)(\s*mode\s*([0-9]+))?.*
! Touchstone port assignment:
! Touchstone port 1 = CST MWS port 1 ("")
! Touchstone port 2 = CST MWS port 2 ("")
# GHz S MA R 50
1                      0.9976271       -10.01929     0.0004936919        175.6511                0               0                0               0
1.00658                0.9975601       -10.10753     0.0004885395        170.5143                0               0                0               0
1.01316                0.9974934       -10.19644     0.0004815577        165.5485                0               0                0               0
1.01974                0.9974266       -10.28604     0.0004727854        160.7752                0               0                0               0
1.02632                0.9973595       -10.37638     0.0004622881         156.221                0               0                0               0
1.03289                0.9972914       -10.46747     0.0004501626        151.9182                0               0                0               0
1.03947                0.9972219       -10.55934     0.0004365456        147.9069                0               0                0               0
1.04605                0.9971506       -10.65201     0.0004216228        144.2356                0               0                0               0
1.05263                0.9970766       -10.74549     0.0004056414        140.9634                0               0                0               0
1.05921                0.9969995       -10.83979     0.0003889274        138.1604                0               0                0               0
1.06579                0.9969189       -10.93491      0.000371906        135.9079                0               0                0               0
1.07237                 0.996834       -11.03086     0.0003551251        134.2957                0               0                0               0
1.07895                0.9967444       -11.12763     0.0003392802        133.4136                0               0                0               0
1.08553                0.9966496       -11.22521     0.0003252307        133.3354                0               0                0               0
1.09211                0.9965491        -11.3236     0.0003139932         134.091                0               0                0               0
1.09868                0.9964428       -11.42276     0.0003066884        135.6295                0               0                0               0
1.10526                0.9963301        -11.5227     0.0003044242         137.787                0               0                0               0
1.11184                 0.996211        -11.6234     0.0003081215        140.2825                0               0                0               0
1.11842                0.9960854       -11.72482     0.0003183401        142.7622                0               0                0               0
1.125                  0.9959531       -11.82697     0.0003351863        144.8823                0               0                0               0
1.13158                0.9958144       -11.92981     0.0003583478        146.3855                0               0                0               0
1.13816                0.9956691       -12.03334     0.0003872259        147.1344                0               0                0               0
1.14474                0.9955177       -12.13754     0.0004210882        147.0999                0               0                0               0
1.15132                0.9953602        -12.2424     0.0004591874        146.3248                0               0                0               0
1.15789                0.9951971       -12.34793     0.0005008277        144.8892                0               0                0               0
1.16447                0.9950287       -12.45411     0.0005453911         142.885                0               0                0               0
1.17105                0.9948554       -12.56096     0.0005923386        140.4018                0               0                0               0
1.17763                0.9946776       -12.66848     0.0006412021        137.5198                0               0                0               0
1.18421                0.9944957       -12.77668     0.0006915708        134.3084                0               0                0               0
1.19079                0.9943099        -12.8856      0.000743081        130.8259                0               0                0               0
1.19737                0.9941209       -12.99525     0.0007954049        127.1209                0               0                0               0
1.20395                0.9939286       -13.10567      0.000848243        123.2338                0               0                0               0
1.21053                0.9937336       -13.21689     0.0009013189        119.1983                0               0                0               0
1.21711                0.9935358       -13.32894     0.0009543739        115.0425                0               0                0               0
1.22368                0.9933355       -13.44188      0.001007165          110.79                0               0                0               0
1.23026                0.9931328       -13.55573      0.001059461        106.4609                0               0                0               0
1.23684                0.9929271       -13.67056      0.001111044        102.0724                0               0                0               0
1.24342                0.9927187        -13.7864      0.001161708        97.63937                0               0                0               0
1.25                   0.9925072       -13.90329      0.001211255          93.175                0               0                0               0
1.25658                0.9922921       -14.02129      0.001259502         88.6909                0               0                0               0
1.26316                0.9920731       -14.14044      0.001306276        84.19755                0               0                0               0
1.26974                0.9918495       -14.26076      0.001351418        79.70454                0               0                0               0
1.27632                0.9916208       -14.38231      0.001394783        75.22076                0               0                0               0
1.28289                0.9913863        -14.5051       0.00143624        70.75457                0               0                0               0
1.28947                0.9911453       -14.62917      0.001475678         66.3139                0               0                0               0
1.29605                0.9908971       -14.75453      0.001513004        61.90644                0               0                0               0
1.30263                0.9906407       -14.88121      0.001548145        57.53966                0               0                0               0
1.30921                0.9903757        -15.0092      0.001581053        53.22089                0               0                0               0
1.31579                0.9901011       -15.13852      0.001611705        48.95744                0               0                0               0
1.32237                0.9898164       -15.26916      0.001640107        44.75654                0               0                0               0
1.32895                 0.989521       -15.40111      0.001666296        40.62543                0               0                0               0
1.33553                 0.989214       -15.53438      0.001690343        36.57132                0               0                0               0
1.34211                0.9888955       -15.66893      0.001712358        32.60139                0               0                0               0
1.34868                0.9885644       -15.80477      0.001732488        28.72271                0               0                0               0
1.35526                0.9882211       -15.94187      0.001750928        24.94213                0               0                0               0
1.36184                0.9878651       -16.08021      0.001767915        21.26622                0               0                0               0
1.36842                0.9874962       -16.21978      0.001783737        17.70103                0               0                0               0
1.375                  0.9871148       -16.36057      0.001798733        14.25193                0               0                0               0
1.38158                0.9867209       -16.50255      0.001813293        10.92331                0               0                0               0
1.38816                0.9863147       -16.64573      0.001827859        7.718316                0               0                0               0
1.39474                0.9858967       -16.79011      0.001842925         4.63847                0               0                0               0
1.40132                 0.985467       -16.93567      0.001859028        1.683336                0               0                0               0
1.40789                0.9850265       -17.08244      0.001876751       -1.149832                0               0                0               0
1.41447                0.9845754       -17.23043      0.001896705       -3.866413                0               0                0               0
1.42105                0.9841143       -17.37967      0.001919526       -6.474648                0               0                0               0
1.42763                0.9836437       -17.53019      0.001945857       -8.985746                0               0                0               0
1.43421                0.9831644       -17.68205      0.001976334       -11.41382                0               0                0               0
1.44079                0.9826764       -17.83527      0.002011568       -13.77564                0               0                0               0
1.44737                0.9821806       -17.98993      0.002052129       -16.09016                0               0                0               0
1.45395                 0.981677       -18.14609      0.002098528       -18.37785                0               0                0               0
1.46053                 0.981166       -18.30383      0.002151202       -20.65995                0               0                0               0
1.46711                0.9806476       -18.46323      0.002210503       -22.95755                0               0                0               0
1.47368                0.9801219       -18.62437      0.002276692       -25.29076                0               0                0               0
1.48026                0.9795886       -18.78734      0.002349932       -27.67798                0               0                0               0
1.48684                0.9790473       -18.95223       0.00243029       -30.13526                0               0                0               0
1.49342                0.9784978       -19.11915      0.002517744        -32.6759                0               0                0               0
1.5                    0.9779391       -19.28817      0.002612186       -35.31027                0               0                0               0
1.50658                0.9773706        -19.4594      0.002713434       -38.04581                0               0                0               0
1.51316                0.9767912       -19.63293      0.002821241       -40.88713                0               0                0               0
1.51974                   0.9762       -19.80885      0.002935308       -43.83634                0               0                0               0
1.52632                0.9755956       -19.98723       0.00305529       -46.89335                0               0                0               0
1.53289                0.9749766       -20.16816      0.003180808       -50.05622                0               0                0               0
1.53947                0.9743416       -20.35171      0.003311458       -53.32154                0               0                0               0
1.54605                 0.973689       -20.53793      0.003446816       -56.68475                0               0                0               0
1.55263                0.9730173        -20.7269      0.003586446       -60.14049                0               0                0               0
1.55921                 0.972325       -20.91865      0.003729907       -63.68279                0               0                0               0
1.56579                  0.97161       -21.11322      0.003876753       -67.30533                0               0                0               0
1.57237                0.9708712       -21.31066      0.004026541       -71.00157                0               0                0               0
1.57895                0.9701068       -21.51098      0.004178832       -74.76492                0               0                0               0
1.58553                0.9693151       -21.71419      0.004333196       -78.58883                0               0                0               0
1.59211                0.9684951       -21.92033      0.004489214       -82.46686                0               0                0               0
1.59868                0.9676451       -22.12939      0.004646478       -86.39273                0               0                0               0
1.60526                 0.966764       -22.34139      0.004804598       -90.36033                0               0                0               0
1.61184                0.9658506       -22.55632      0.004963202       -94.36379                0               0                0               0
1.61842                0.9649042       -22.77419      0.005121936       -98.39746                0               0                0               0
1.625                  0.9639235       -22.99501       0.00528047       -102.4559                0               0                0               0
1.63158                0.9629081       -23.21878      0.005438502       -106.5339                0               0                0               0
1.63816                0.9618573       -23.44551      0.005595756       -110.6265                0               0                0               0
1.64474                0.9607705       -23.67522      0.005751986       -114.7289                0               0                0               0
1.65132                0.9596475       -23.90794      0.005906984       -118.8366                0               0                0               0
1.65789                0.9584877        -24.1437      0.006060573       -122.9452                0               0                0               0
1.66447                 0.957291       -24.38253      0.006212622       -127.0505                0               0                0               0
1.67105                0.9560571       -24.62451      0.006363037       -131.1485                0               0                0               0
1.67763                0.9547858       -24.86968      0.006511776       -135.2356                0               0                0               0
1.68421                0.9534768       -25.11813      0.006658841       -139.3081                0               0                0               0
1.69079                0.9521298       -25.36995      0.006804289       -143.3626                0               0                0               0
1.69737                0.9507444       -25.62523      0.006948235        -147.396                0               0                0               0
1.70395                0.9493201        -25.8841      0.007090845       -151.4053                0               0                0               0
1.71053                0.9478563       -26.14668      0.007232352        -155.388                0               0                0               0
1.71711                0.9463521        -26.4131       0.00737305       -159.3416                0               0                0               0
1.72368                0.9448066       -26.68352      0.007513297        -163.264                0               0                0               0
1.73026                0.9432187       -26.95808      0.007653518       -167.1534                0               0                0               0
1.73684                0.9415866       -27.23696      0.007794202       -171.0084                0               0                0               0
1.74342                 0.939909       -27.52032      0.007935908       -174.8281                0               0                0               0
1.75                   0.9381837       -27.80834      0.008079258       -178.6118                0               0                0               0
1.75658                0.9364086       -28.10119      0.008224934        177.6406                0               0                0               0
1.76316                0.9345813       -28.39906      0.008373682        173.9287                0               0                0               0
1.76974                 0.932699       -28.70214      0.008526298        170.2517                0               0                0               0
1.77632                0.9307587       -29.01059      0.008683632         166.608                0               0                0               0
1.78289                0.9287573       -29.32459      0.008846567        162.9956                0               0                0               0
1.78947                0.9266912       -29.64433      0.009016027        159.4121                0               0                0               0
1.79605                0.9245568       -29.96996      0.009192952        155.8543                0               0                0               0
1.80263                0.9223503       -30.30165      0.009378296        152.3186                0               0                0               0
1.80921                0.9200675       -30.63955      0.009573013        148.8009                0               0                0               0
1.81579                0.9177043       -30.98382      0.009778044        145.2967                0               0                0               0
1.82237                0.9152563       -31.33459      0.009994302         141.801                0               0                0               0
1.82895                0.9127189       -31.69199       0.01022266        138.3086                0               0                0               0
1.83553                0.9100878       -32.05616       0.01046396        134.8143                0               0                0               0
1.84211                0.9073579       -32.42721       0.01071894        131.3126                0               0                0               0
1.84868                0.9045249       -32.80526       0.01098832        127.7981                0               0                0               0
1.85526                0.9015838       -33.19042       0.01127268        124.2654                0               0                0               0
1.86184                0.8985297       -33.58278       0.01157256        120.7093                0               0                0               0
1.86842                0.8953578       -33.98245       0.01188838        117.1251                0               0                0               0
1.875                  0.8920631       -34.38954       0.01222046        113.5083                0               0                0               0
1.88158                0.8886405       -34.80412       0.01256903        109.8548                0               0                0               0
1.88816                0.8850851       -35.22631       0.01293422        106.1609                0               0                0               0
1.89474                0.8813916        -35.6562       0.01331604        102.4236                0               0                0               0
1.90132                0.8775549       -36.09388       0.01371442        98.64021                0               0                0               0
1.90789                0.8735696       -36.53946       0.01412918        94.80861                0               0                0               0
1.91447                0.8694302       -36.99303       0.01456007        90.92714                0               0                0               0
1.92105                0.8651311        -37.4547       0.01500673        86.99465                0               0                0               0
1.92763                0.8606666       -37.92458       0.01546872        83.01039                0               0                0               0
1.93421                0.8560306       -38.40276       0.01594556        78.97402                0               0                0               0
1.94079                 0.851217       -38.88935       0.01643664        74.88557                0               0                0               0
1.94737                0.8462192       -39.38445       0.01694134        70.74539                0               0                0               0
1.95395                0.8410307       -39.88817       0.01745895        66.55411                0               0                0               0
1.96053                0.8356444       -40.40059       0.01798871        62.31261                0               0                0               0
1.96711                0.8300531       -40.92178       0.01852982        58.02197                0               0                0               0
1.97368                0.8242492       -41.45184       0.01908144        53.68343                0               0                0               0
1.98026                0.8182249       -41.99079       0.01964267        49.29839                0               0                0               0
1.98684                0.8119723       -42.53868        0.0202126        44.86832                0               0                0               0
1.99342                0.8054828       -43.09552       0.02079026         40.3948                0               0                0               0
2                      0.7987481       -43.66126       0.02137468        35.87948                0               0                0               0
2.00658                0.7917592       -44.23586       0.02196485        31.32402                0               0                0               0
2.01316                0.7845073       -44.81922       0.02255976        26.73009                0               0                0               0
2.01974                0.7769835       -45.41119       0.02315835        22.09939                0               0                0               0
2.02632                0.7691787       -46.01157       0.02375957        17.43363                0               0                0               0
2.03289                 0.761084       -46.62009       0.02436237        12.73447                0               0                0               0
2.03947                0.7526903       -47.23643       0.02496565        8.003554                0               0                0               0
2.04605                0.7439893        -47.8602       0.02556835        3.242507                0               0                0               0
2.05263                0.7349723        -48.4909       0.02616937       -1.547084                0               0                0               0
2.05921                0.7256316       -49.12797       0.02676765       -6.363678                0               0                0               0
2.06579                0.7159596       -49.77075       0.02736208       -11.20577                0               0                0               0
2.07237                0.7059494       -50.41846       0.02795161       -16.07189                0               0                0               0
2.07895                0.6955948       -51.07022       0.02853514       -20.96062                0               0                0               0
2.08553                0.6848906       -51.72502       0.02911163        -25.8706                0               0                0               0
2.09211                0.6738322       -52.38173       0.02968003       -30.80048                0               0                0               0
2.09868                0.6624163       -53.03905       0.03023929       -35.74898                0               0                0               0
2.10526                0.6506408       -53.69554        0.0307884       -40.71484                0               0                0               0
2.11184                0.6385045       -54.34957       0.03132636       -45.69688                0               0                0               0
2.11842                 0.626008       -54.99933       0.03185217        -50.6939                0               0                0               0
2.125                  0.6131531       -55.64282       0.03236489       -55.70479                0               0                0               0
2.13158                0.5999432       -56.27776       0.03286357       -60.72844                0               0                0               0
2.13816                0.5863836       -56.90167        0.0333473       -65.76379                0               0                0               0
2.14474                 0.572481       -57.51176        0.0338152       -70.80982                0               0                0               0
2.15132                0.5582442       -58.10491       0.03426642       -75.86552                0               0                0               0
2.15789                0.5436839       -58.67767       0.03470014       -80.92992                0               0                0               0
2.16447                0.5288129       -59.22618       0.03511557       -86.00208                0               0                0               0
2.17105                 0.513646       -59.74611       0.03551195       -91.08106                0               0                0               0
2.17763                0.4982002       -60.23261       0.03588858       -96.16597                0               0                0               0
2.18421                 0.482495       -60.68026       0.03624479       -101.2559                0               0                0               0
2.19079                0.4665523       -61.08288       0.03657992         -106.35                0               0                0               0
2.19737                0.4503968       -61.43357       0.03689341       -111.4475                0               0                0               0
2.20395                0.4340555       -61.72442       0.03718468       -116.5475                0               0                0               0
2.21053                 0.417559       -61.94647       0.03745324       -121.6491                0               0                0               0
2.21711                0.4009407       -62.08948       0.03769862       -126.7516                0               0                0               0
2.22368                0.3842379        -62.1417       0.03792043       -131.8542                0               0                0               0
2.23026                0.3674917       -62.08958       0.03811829       -136.9561                0               0                0               0
2.23684                 0.350748       -61.91757       0.03829188       -142.0565                0               0                0               0
2.24342                0.3340578        -61.6076       0.03844094       -147.1545                0               0                0               0
2.25                   0.3174784       -61.13877       0.03856526       -152.2495                0               0                0               0
2.25658                0.3010739       -60.48691       0.03866467       -157.3407                0               0                0               0
2.26316                0.2849175       -59.62408       0.03873906       -162.4272                0               0                0               0
2.26974                0.2690921       -58.51814       0.03878838       -167.5083                0               0                0               0
2.27632                0.2536932       -57.13254       0.03881261       -172.5833                0               0                0               0
2.28289                0.2388305       -55.42634        0.0388118       -177.6513                0               0                0               0
2.28947                0.2246308       -53.35493       0.03878605        177.2885                0               0                0               0