! TOUCHSTONE file generated by CST MICROWAVE STUDIO
! Date and time: Tue Mar 11 13:57:59 2025
! Project name: transverse.cst
! Parameters = {Fracture=5; B=10; D=160; F=25; Feed=2.85625; L=100; M=10; R=0.384908; S=1; Theta=270; length=57.125; wave=114.25}
! Header version: 2024
! Port assignment regex: !\s*Touchstone port\s*([0-9]+)\s*=\s*(CST MWS port|CST DES external port|CST DES block port)\s*(.+)\s* \(\"(.*)\"\)(\s*mode\s*([0-9]+))?.*
! Touchstone port assignment:
! Touchstone port 1 = CST MWS port 1 ("")
! Touchstone port 2 = CST MWS port 2 ("")
# GHz S MA R 50
1                      0.9976382       -9.752852     0.0003617238       -158.1743                0               0                0               0
1.00658                0.9975718       -9.839069     0.0003642989       -161.7455                0               0                0               0
1.01316                0.9975062       -9.925943      0.000366167       -165.1421                0               0                0               0
1.01974                0.9974414       -10.01351     0.0003674206       -168.3481                0               0                0               0
1.02632                 0.997377       -10.10182     0.0003681771       -171.3475                0               0                0               0
1.03289                0.9973124       -10.19088     0.0003685821       -174.1247                0               0                0               0
1.03947                0.9972472       -10.28075     0.0003688115       -176.6657                0               0                0               0
1.04605                0.9971807       -10.37144      0.000369073        -178.959                0               0                0               0
1.05263                0.9971122       -10.46297     0.0003696067        179.0026                0               0                0               0
1.05921                0.9970413       -10.55536     0.0003706836        177.2202                0               0                0               0
1.06579                0.9969671       -10.64862     0.0003726013        175.6866                0               0                0               0
1.07237                 0.996889       -10.74275     0.0003756774        174.3849                0               0                0               0
1.07895                0.9968061       -10.83776     0.0003802383        173.2868                0               0                0               0
1.08553                0.9967181       -10.93362     0.0003866059        172.3527                0               0                0               0
1.09211                0.9966243       -11.03035     0.0003950821         171.533                0               0                0               0
1.09868                0.9965242       -11.12791     0.0004059327        170.7705                0               0                0               0
1.10526                0.9964172       -11.22629     0.0004193738        170.0049                0               0                0               0
1.11184                0.9963032       -11.32546      0.000435563        169.1775                0               0                0               0
1.11842                0.9961818       -11.42541     0.0004545943         168.235                0               0                0               0
1.125                  0.9960529       -11.52611     0.0004765008        167.1338                0               0                0               0
1.13158                0.9959163       -11.62752     0.0005012601         165.841                0               0                0               0
1.13816                0.9957723       -11.72964     0.0005288037        164.3354                0               0                0               0
1.14474                0.9956207       -11.83242     0.0005590266        162.6063                0               0                0               0
1.15132                0.9954619       -11.93586      0.000591798        160.6517                0               0                0               0
1.15789                0.9952963       -12.03993      0.000626969        158.4769                0               0                0               0
1.16447                0.9951242       -12.14463     0.0006643802         156.092                0               0                0               0
1.17105                0.9949461       -12.24994     0.0007038665        153.5104                0               0                0               0
1.17763                0.9947625       -12.35587     0.0007452613        150.7474                0               0                0               0
1.18421                0.9945739       -12.46242     0.0007883987        147.8191                0               0                0               0
1.19079                0.9943808       -12.56959     0.0008331151        144.7416                0               0                0               0
1.19737                0.9941838       -12.67742     0.0008792507        141.5309                0               0                0               0
1.20395                0.9939834       -12.78592     0.0009266501        138.2017                0               0                0               0
1.21053                0.9937802       -12.89511     0.0009751622        134.7684                0               0                0               0
1.21711                0.9935742       -13.00505      0.001024641        131.2439                0               0                0               0
1.22368                0.9933662       -13.11576      0.001074945        127.6404                0               0                0               0
1.23026                0.9931563       -13.22729      0.001125938         123.969                0               0                0               0
1.23684                0.9929447       -13.33969      0.001177492        120.2399                0               0                0               0
1.24342                0.9927314       -13.45302      0.001229482        116.4625                0               0                0               0
1.25                   0.9925163       -13.56731       0.00128179        112.6452                0               0                0               0
1.25658                0.9922994       -13.68263      0.001334306        108.7961                0               0                0               0
1.26316                0.9920804       -13.79904      0.001386926        104.9222                0               0                0               0
1.26974                0.9918587       -13.91657      0.001439555        101.0303                0               0                0               0
1.27632                0.9916341       -14.03529      0.001492107        97.12651                0               0                0               0
1.28289                0.9914058       -14.15523      0.001544505        93.21645                0               0                0               0
1.28947                0.9911733       -14.27643      0.001596682        89.30539                0               0                0               0
1.29605                0.9909359       -14.39894      0.001648583        85.39819                0               0                0               0
1.30263                0.9906928       -14.52278      0.001700163        81.49936                0               0                0               0
1.30921                 0.990443       -14.64798      0.001751391        77.61306                0               0                0               0
1.31579                 0.990186       -14.77456       0.00180225        73.74316                0               0                0               0
1.32237                0.9899207       -14.90253      0.001852736         69.8932                0               0                0               0
1.32895                0.9896466       -15.03189      0.001902861        66.06644                0               0                0               0
1.33553                0.9893629       -15.16266      0.001952651        62.26584                0               0                0               0
1.34211                0.9890687       -15.29482       0.00200215        58.49404                0               0                0               0
1.34868                0.9887637       -15.42837      0.002051418        54.75339                0               0                0               0
1.35526                0.9884472       -15.56329      0.002100531        51.04592                0               0                0               0
1.36184                0.9881187       -15.69958      0.002149585        47.37332                0               0                0               0
1.36842                0.9877783       -15.83721       0.00219869        43.73692                0               0                0               0
1.375                  0.9874253       -15.97618      0.002247974        40.13769                0               0                0               0
1.38158                0.9870601       -16.11646      0.002297581        36.57621                0               0                0               0
1.38816                0.9866826       -16.25805      0.002347671        33.05264                0               0                0               0
1.39474                0.9862928       -16.40094      0.002398417        29.56675                0               0                0               0
1.40132                 0.985891       -16.54512      0.002450008        26.11786                0               0                0               0
1.40789                0.9854777       -16.69059      0.002502641        22.70486                0               0                0               0
1.41447                0.9850533       -16.83736      0.002556523        19.32619                0               0                0               0
1.42105                0.9846182       -16.98546      0.002611871        15.97989                0               0                0               0
1.42763                0.9841729       -17.13489      0.002668902        12.66356                0               0                0               0
1.43421                 0.983718       -17.28571      0.002727837        9.374459                0               0                0               0
1.44079                 0.983254       -17.43794      0.002788898        6.109468                0               0                0               0
1.44737                0.9827814       -17.59164      0.002852298        2.865187                0               0                0               0
1.45395                0.9823004       -17.74686      0.002918248      -0.3620278                0               0                0               0
1.46053                0.9818117       -17.90368      0.002986944       -3.576004                0               0                0               0
1.46711                0.9813153       -18.06217      0.003058575       -6.780673                0               0                0               0
1.47368                0.9808116       -18.22242      0.003133309       -9.980014                0               0                0               0
1.48026                0.9803004        -18.3845      0.003211299       -13.17797                0               0                0               0
1.48684                0.9797813       -18.54853      0.003292679       -16.37838                0               0                0               0
1.49342                0.9792546       -18.71458      0.003377561       -19.58492                0               0                0               0
1.5                    0.9787194       -18.88278      0.003466035       -22.80104                0               0                0               0
1.50658                 0.978175        -19.0532      0.003558167       -26.02988                0               0                0               0
1.51316                0.9776208       -19.22596      0.003654003       -29.27429                0               0                0               0
1.51974                0.9770558       -19.40116      0.003753562       -32.53674                0               0                0               0
1.52632                0.9764787       -19.57888      0.003856844       -35.81932                0               0                0               0
1.53289                0.9758883       -19.75923      0.003963828       -39.12374                0               0                0               0
1.53947                0.9752833       -19.94228      0.004074471       -42.45129                0               0                0               0
1.54605                0.9746619       -20.12813      0.004188714       -45.80289                0               0                0               0
1.55263                0.9740228       -20.31683      0.004306482       -49.17907                0               0                0               0
1.55921                0.9733639       -20.50846      0.004427684       -52.57999                0               0                0               0
1.56579                 0.972684       -20.70307      0.004552222        -56.0055                0               0                0               0
1.57237                0.9719808       -20.90072      0.004679983       -59.45511                0               0                0               0
1.57895                0.9712531       -21.10144      0.004810852       -62.92807                0               0                0               0
1.58553                0.9704988       -21.30527      0.004944709       -66.42339                0               0                0               0
1.59211                0.9697164       -21.51224      0.005081431       -69.93984                0               0                0               0
1.59868                0.9689042       -21.72238        0.0052209       -73.47603                0               0                0               0
1.60526                0.9680609       -21.93569         0.005363       -77.03041                0               0                0               0
1.61184                0.9671848        -22.1522      0.005507621       -80.60129                0               0                0               0
1.61842                0.9662751       -22.37193      0.005654668       -84.18693                0               0                0               0
1.625                  0.9653303       -22.59487      0.005804052       -87.78547                0               0                0               0
1.63158                0.9643494       -22.82106      0.005955704       -91.39506                0               0                0               0
1.63816                0.9633314       -23.05052      0.006109568       -95.01381                0               0                0               0
1.64474                0.9622756       -23.28326      0.006265614       -98.63985                0               0                0               0
1.65132                0.9611812       -23.51932       0.00642383       -102.2713                0               0                0               0
1.65789                0.9600475       -23.75874       0.00658423       -105.9065                0               0                0               0
1.66447                 0.958874       -24.00156      0.006746856       -109.5436                0               0                0               0
1.67105                  0.95766       -24.24786      0.006911779        -113.181                0               0                0               0
1.67763                 0.956405       -24.49769        0.0070791       -116.8172                0               0                0               0
1.68421                0.9551082       -24.75114      0.007248953       -120.4509                0               0                0               0
1.69079                0.9537689       -25.00832      0.007421504       -124.0808                0               0                0               0
1.69737                0.9523865       -25.26932      0.007596957       -127.7058                0               0                0               0
1.70395                0.9509598       -25.53427      0.007775548       -131.3252                0               0                0               0
1.71053                0.9494879       -25.80331      0.007957552       -134.9381                0               0                0               0
1.71711                0.9479692       -26.07656      0.008143273       -138.5442                0               0                0               0
1.72368                0.9464021        -26.3542      0.008333056       -142.1431                0               0                0               0
1.73026                0.9447851       -26.63638       0.00852728       -145.7349                0               0                0               0
1.73684                0.9431158       -26.92326      0.008726352       -149.3197                0               0                0               0
1.74342                0.9413918       -27.21502       0.00893071       -152.8981                0               0                0               0
1.75                   0.9396104       -27.51184      0.009140819       -156.4706                0               0                0               0
1.75658                0.9377685       -27.81388      0.009357173       -160.0383                0               0                0               0
1.76316                0.9358627       -28.12133       0.00958028       -163.6022                0               0                0               0
1.76974                0.9338893       -28.43434      0.009810666       -167.1638                0               0                0               0
1.77632                0.9318442       -28.75308       0.01004887       -170.7247                0               0                0               0
1.78289                0.9297232       -29.07769       0.01029543       -174.2865                0               0                0               0
1.78947                0.9275217       -29.40832       0.01055091       -177.8513                0               0                0               0
1.79605                0.9252349       -29.74509       0.01081583        178.5788                0               0                0               0
1.80263                0.9228576       -30.08812       0.01109073        175.0017                0               0                0               0
1.80921                0.9203847       -30.43748       0.01137613        171.4151                0               0                0               0
1.81579                0.9178109       -30.79328       0.01167252        167.8167                0               0                0               0
1.82237                0.9151309       -31.15555       0.01198037         164.204                0               0                0               0
1.82895                0.9123388       -31.52434       0.01230011        160.5747                0               0                0               0
1.83553                0.9094294       -31.89967       0.01263214        156.9266                0               0                0               0
1.84211                0.9063972       -32.28153       0.01297683        153.2574                0               0                0               0
1.84868                0.9032366       -32.66991       0.01333448         149.565                0               0                0               0
1.85526                0.8999425       -33.06478       0.01370536        145.8474                0               0                0               0
1.86184                0.8965095       -33.46608       0.01408967        142.1026                0               0                0               0
1.86842                0.8929328       -33.87375       0.01448759         138.329                0               0                0               0
1.875                  0.8892074        -34.2877        0.0148992        134.5251                0               0                0               0
1.88158                0.8853287       -34.70784       0.01532456        130.6895                0               0                0               0
1.88816                0.8812923       -35.13407       0.01576365        126.8211                0               0                0               0
1.89474                0.8770941       -35.56629       0.01621641        122.9188                0               0                0               0
1.90132                0.8727298       -36.00438        0.0166827         118.982                0               0                0               0
1.90789                 0.868196       -36.44821       0.01716234          115.01                0               0                0               0
1.91447                0.8634888       -36.89767       0.01765509        111.0023                0               0                0               0
1.92105                0.8586049       -37.35265       0.01816065        106.9589                0               0                0               0
1.92763                0.8535411       -37.81302       0.01867867        102.8795                0               0                0               0
1.93421                0.8482942       -38.27867       0.01920874        98.76434                0               0                0               0
1.94079                0.8428611       -38.74949       0.01975042        94.61353                0               0                0               0
1.94737                0.8372389       -39.22536        0.0203032        90.42744                0               0                0               0
1.95395                0.8314246       -39.70619       0.02086653        86.20652                0               0                0               0
1.96053                0.8254152       -40.19187       0.02143982        81.95133                0               0                0               0
1.96711                0.8192077        -40.6823       0.02202245        77.66251                0               0                0               0
1.97368                0.8127989       -41.17739       0.02261372        73.34077                0               0                0               0
1.98026                0.8061856       -41.67702       0.02321295         68.9869                0               0                0               0
1.98684                0.7993645       -42.18111       0.02381938        64.60176                0               0                0               0
1.99342                0.7923321       -42.68952       0.02443224        60.18622                0               0                0               0
2                      0.7850845       -43.20214       0.02505072        55.74123                0               0                0               0
2.00658                0.7776178       -43.71883         0.025674        51.26772                0               0                0               0
2.01316                0.7699282        -44.2394        0.0263012        46.76669                0               0                0               0
2.01974                0.7620113       -44.76368       0.02693145        42.23913                0               0                0               0
2.02632                0.7538627       -45.29143       0.02756385        37.68606                0               0                0               0
2.03289                0.7454779       -45.82239       0.02819749        33.10848                0               0                0               0
2.03947                0.7368525       -46.35622       0.02883142        28.50741                0               0                0               0
2.04605                0.7279819       -46.89256       0.02946471        23.88387                0               0                0               0
2.05263                0.7188614       -47.43097       0.03009639        19.23887                0               0                0               0
2.05921                0.7094866       -47.97092       0.03072551         14.5734                0               0                0               0
2.06579                0.6998534       -48.51183       0.03135108        9.888469                0               0                0               0
2.07237                0.6899577         -49.053       0.03197214        5.185052                0               0                0               0
2.07895                0.6797959       -49.59365        0.0325877       0.4641176                0               0                0               0
2.08553                 0.669365       -50.13284        0.0331968       -4.273379                0               0                0               0
2.09211                0.6586623       -50.66957       0.03379847       -9.026498                0               0                0               0
2.09868                 0.647686       -51.20265       0.03439174       -13.79431                0               0                0               0
2.10526                 0.636435       -51.73077       0.03497565       -18.57591                0               0                0               0
2.11184                0.6249091       -52.25244       0.03554926        -23.3704                0               0                0               0
2.11842                0.6131092       -52.76598       0.03611165        -28.1769                0               0                0               0
2.125                  0.6010372       -53.26954       0.03666188       -32.99454                0               0                0               0
2.13158                0.5886963       -53.76103       0.03719906       -37.82248                0               0                0               0
2.13816                0.5760913       -54.23815       0.03772231       -42.65987                0               0                0               0
2.14474                 0.563228       -54.69831       0.03823077        -47.5059                0               0                0               0
2.15132                0.5501143       -55.13865       0.03872361       -52.35975                0               0                0               0
2.15789                0.5367594       -55.55599       0.03920002       -57.22063                0               0                0               0
2.16447                0.5231743       -55.94683       0.03965923       -62.08774                0               0                0               0
2.17105                0.5093722       -56.30725       0.04010046       -66.96032                0               0                0               0
2.17763                0.4953681       -56.63291       0.04052302        -71.8376                0               0                0               0
2.18421                0.4811792       -56.91901       0.04092622       -76.71882                0               0                0               0
2.19079                0.4668246       -57.16019        0.0413094       -81.60323                0               0                0               0
2.19737                0.4523264       -57.35053       0.04167195       -86.49009                0               0                0               0
2.20395                0.4377084       -57.48342       0.04201331       -91.37868                0               0                0               0
2.21053                0.4229977        -57.5515       0.04233295       -96.26825                0               0                0               0
2.21711                0.4082239       -57.54656       0.04263036       -101.1581                0               0                0               0
2.22368                0.3934197       -57.45947       0.04290511       -106.0475                0               0                0               0
2.23026                0.3786209       -57.28006        0.0431568       -110.9357                0               0                0               0
2.23684                 0.363867       -56.99694       0.04338507        -115.822                0               0                0               0
2.24342                0.3492012       -56.59749       0.04358961       -120.7058                0               0                0               0
2.25                   0.3346714       -56.06767       0.04377017       -125.5862                0               0                0               0
2.25658                0.3203295       -55.39198       0.04392653       -130.4627                0               0                0               0
2.26316                0.3062333       -54.55337       0.04405854       -135.3344                0               0                0               0
2.26974                0.2924459       -53.53327       0.04416608       -140.2006                0               0                0               0
2.27632                0.2790371        -52.3118       0.04424911       -145.0607                0               0                0               0
2.28289                0.2660834       -50.86802        0.0443076        -149.914                0               0                0               0
2.28947                0.2536689       -49.18056       0.04434162       -154.7597                0               0                0               0