! TOUCHSTONE file generated by CST MICROWAVE STUDIO
! Date and time: Tue Mar 11 13:57:01 2025
! Project name: transverse.cst
! Parameters = {Fracture=5; B=12.5; D=160; F=15; Feed=2.85625; L=100; M=10; R=0.384908; S=2; Theta=90; length=57.125; wave=114.25}
! Header version: 2024
! Port assignment regex: !\s*Touchstone port\s*([0-9]+)\s*=\s*(CST MWS port|CST DES external port|CST DES block port)\s*(.+)\s* \(\"(.*)\"\)(\s*mode\s*([0-9]+))?.*
! Touchstone port assignment:
! Touchstone port 1 = CST MWS port 1 ("")
! Touchstone port 2 = CST MWS port 2 ("")
# GHz S MA R 50
1                      0.9978144       -9.747935     0.0003130558        -152.426                0               0                0               0
1.0066                 0.9977332       -9.836125     0.0003183966       -155.7305                0               0                0               0
1.0132                 0.9976475       -9.924801     0.0003232509       -158.9271                0               0                0               0
1.0198                 0.9975576       -10.01395     0.0003276632       -162.0038                0               0                0               0
1.0264                 0.9974638       -10.10358     0.0003316931       -164.9493                0               0                0               0
1.033                  0.9973665       -10.19366     0.0003354168       -167.7525                0               0                0               0
1.0396                 0.9972661       -10.28421     0.0003389283       -170.4038                0               0                0               0
1.0462                  0.997163       -10.37522     0.0003423405       -172.8948                0               0                0               0
1.05281                0.9970578       -10.46672      0.000345785       -175.2194                0               0                0               0
1.05941                0.9969506        -10.5587     0.0003494128       -177.3744                0               0                0               0
1.06601                0.9968418        -10.6512     0.0003533928       -179.3606                0               0                0               0
1.07261                 0.996732       -10.74423     0.0003579097        178.8171                0               0                0               0
1.07921                0.9966214       -10.83782     0.0003631609        177.1481                0               0                0               0
1.08581                0.9965101         -10.932     0.0003693512        175.6166                0               0                0               0
1.09241                0.9963984       -11.02682     0.0003766872        174.2007                0               0                0               0
1.09901                0.9962866        -11.1223     0.0003853706        172.8735                0               0                0               0
1.10561                0.9961743       -11.21848     0.0003955899        171.6037                0               0                0               0
1.11221                0.9960617       -11.31542     0.0004075147        170.3572                0               0                0               0
1.11881                0.9959486       -11.41313     0.0004212883        169.0992                0               0                0               0
1.12541                0.9958348       -11.51167     0.0004370243        167.7957                0               0                0               0
1.13201                0.9957199       -11.61107     0.0004548034        166.4157                0               0                0               0
1.13861                0.9956033       -11.71137     0.0004746731        164.9327                0               0                0               0
1.14521                0.9954849       -11.81259     0.0004966499        163.3251                0               0                0               0
1.15182                0.9953641       -11.91478      0.000520721        161.5773                0               0                0               0
1.15842                  0.99524       -12.01794     0.0005468488        159.6792                0               0                0               0
1.16502                0.9951123        -12.1221     0.0005749751        157.6256                0               0                0               0
1.17162                0.9949803       -12.22729     0.0006050249        155.4159                0               0                0               0
1.17822                0.9948433       -12.33349     0.0006369104         153.053                0               0                0               0
1.18482                0.9947005       -12.44072     0.0006705339        150.5424                0               0                0               0
1.19142                0.9945518       -12.54899     0.0007057919        147.8917                0               0                0               0
1.19802                0.9943961       -12.65828     0.0007425755        145.1099                0               0                0               0
1.20462                0.9942332       -12.76859     0.0007807737        142.2065                0               0                0               0
1.21122                0.9940627        -12.8799     0.0008202742        139.1918                0               0                0               0
1.21782                 0.993884       -12.99221     0.0008609647        136.0759                0               0                0               0
1.22442                0.9936968       -13.10549     0.0009027338        132.8687                0               0                0               0
1.23102                0.9935012       -13.21973     0.0009454718        129.5799                0               0                0               0
1.23762                 0.993297        -13.3349     0.0009890716        126.2189                0               0                0               0
1.24422                 0.993084         -13.451      0.001033428        122.7945                0               0                0               0
1.25083                0.9928625       -13.56801      0.001078442        119.3149                0               0                0               0
1.25743                0.9926325       -13.68591      0.001124015        115.7881                0               0                0               0
1.26403                0.9923944        -13.8047      0.001170056        112.2213                0               0                0               0
1.27063                0.9921484       -13.92437      0.001216479        108.6214                0               0                0               0
1.27723                0.9918949       -14.04492      0.001263202         104.995                0               0                0               0
1.28383                0.9916343       -14.16635      0.001310152        101.3478                0               0                0               0
1.29043                0.9913672       -14.28868      0.001357262        97.68564                0               0                0               0
1.29703                0.9910939       -14.41193      0.001404473        94.01365                0               0                0               0
1.30363                0.9908148       -14.53611      0.001451736        90.33672                0               0                0               0
1.31023                0.9905305       -14.66125       0.00149901        86.65939                0               0                0               0
1.31683                0.9902411        -14.7874      0.001546264        82.98586                0               0                0               0
1.32343                0.9899475        -14.9146       0.00159348        79.32004                0               0                0               0
1.33003                0.9896494       -15.04288      0.001640648        75.66554                0               0                0               0
1.33663                0.9893474       -15.17231      0.001687774        72.02565                0               0                0               0
1.34323                0.9890414       -15.30293      0.001734875        68.40338                0               0                0               0
1.34984                0.9887314       -15.43481      0.001781979        64.80144                0               0                0               0
1.35644                0.9884174         -15.568      0.001829133        61.22221                0               0                0               0
1.36304                0.9880991       -15.70257      0.001876392        57.66779                0               0                0               0
1.36964                0.9877764       -15.83858      0.001923831        54.13992                0               0                0               0
1.37624                0.9874486       -15.97609      0.001971534        50.64002                0               0                0               0
1.38284                0.9871154       -16.11516      0.002019603        47.16915                0               0                0               0
1.38944                0.9867761       -16.25585       0.00206815        43.72802                0               0                0               0
1.39604                  0.98643       -16.39821      0.002117303        40.31695                0               0                0               0
1.40264                0.9860763        -16.5423      0.002167201        36.93589                0               0                0               0
1.40924                0.9857141       -16.68815      0.002217995         33.5844                0               0                0               0
1.41584                0.9853426       -16.83582      0.002269844        30.26163                0               0                0               0
1.42244                 0.984961       -16.98533      0.002322918        26.96637                0               0                0               0
1.42904                0.9845682       -17.13672      0.002377391        23.69703                0               0                0               0
1.43564                0.9841634       -17.29001      0.002433444        20.45165                0               0                0               0
1.44224                0.9837456       -17.44523      0.002491259        17.22794                0               0                0               0
1.44884                 0.983314       -17.60239      0.002551018        14.02333                0               0                0               0
1.45545                0.9828678        -17.7615      0.002612902        10.83498                0               0                0               0
1.46205                0.9824063       -17.92258      0.002677089        7.659812                0               0                0               0
1.46865                0.9819288       -18.08564      0.002743747        4.494625                0               0                0               0
1.47525                0.9814347       -18.25067      0.002813037        1.336096                0               0                0               0
1.48185                0.9809236       -18.41769      0.002885108       -1.819141                0               0                0               0
1.48845                0.9803949       -18.58671      0.002960096       -4.974436                0               0                0               0
1.49505                0.9798485       -18.75773      0.003038124       -8.133066                0               0                0               0
1.50165                 0.979284       -18.93076      0.003119296       -11.29818                0               0                0               0
1.50825                0.9787013       -19.10583      0.003203701       -14.47273                0               0                0               0
1.51485                0.9781003       -19.28296      0.003291408       -17.65947                0               0                0               0
1.52145                 0.977481       -19.46216       0.00338247       -20.86086                0               0                0               0
1.52805                0.9768434       -19.64349       0.00347692        -24.0791                0               0                0               0
1.53465                0.9761873       -19.82697      0.003574773       -27.31603                0               0                0               0
1.54125                0.9755129       -20.01266      0.003676028        -30.5732                0               0                0               0
1.54785                0.9748201       -20.20063      0.003780664        -33.8518                0               0                0               0
1.55446                0.9741091       -20.39092      0.003888649       -37.15268                0               0                0               0
1.56106                0.9733795       -20.58362      0.003999932       -40.47639                0               0                0               0
1.56766                0.9726312       -20.77882      0.004114453       -43.82315                0               0                0               0
1.57426                0.9718639       -20.97659      0.004232141       -47.19287                0               0                0               0
1.58086                0.9710771       -21.17704      0.004352915       -50.58519                0               0                0               0
1.58746                0.9702703       -21.38028      0.004476688       -53.99952                0               0                0               0
1.59406                0.9694429        -21.5864      0.004603367       -57.43501                0               0                0               0
1.60066                0.9685937       -21.79553      0.004732858       -60.89063                0               0                0               0
1.60726                 0.967722       -22.00778      0.004865069       -64.36518                0               0                0               0
1.61386                0.9668263       -22.22326      0.004999905       -67.85728                0               0                0               0
1.62046                0.9659053       -22.44209      0.005137279       -71.36546                0               0                0               0
1.62706                0.9649574       -22.66439      0.005277112       -74.88815                0               0                0               0
1.63366                0.9639808       -22.89028       0.00541933       -78.42371                0               0                0               0
1.64026                0.9629735       -23.11987      0.005563875       -81.97042                0               0                0               0
1.64686                0.9619335       -23.35327      0.005710702       -85.52659                0               0                0               0
1.65347                0.9608584       -23.59057      0.005859778       -89.09048                0               0                0               0
1.66007                0.9597461       -23.83188      0.006011094       -92.66039                0               0                0               0
1.66667                0.9585937       -24.07728      0.006164659       -96.23466                0               0                0               0
1.67327                 0.957399       -24.32687      0.006320507       -99.81166                0               0                0               0
1.67987                0.9561592       -24.58071      0.006478691       -103.3899                0               0                0               0
1.68647                0.9548715       -24.83887      0.006639295       -106.9679                0               0                0               0
1.69307                0.9535333       -25.10142      0.006802431       -110.5443                0               0                0               0
1.69967                0.9521418       -25.36841      0.006968236       -114.1179                0               0                0               0
1.70627                0.9506941       -25.63988      0.007136883       -117.6877                0               0                0               0
1.71287                0.9491876       -25.91589      0.007308572       -121.2528                0               0                0               0
1.71947                0.9476197       -26.19646      0.007483538       -124.8124                0               0                0               0
1.72607                0.9459875       -26.48163      0.007662045        -128.366                0               0                0               0
1.73267                0.9442885       -26.77143      0.007844389       -131.9132                0               0                0               0
1.73927                0.9425201       -27.06589      0.008030901       -135.4539                0               0                0               0
1.74587                0.9406798       -27.36503      0.008221937       -138.9881                0               0                0               0
1.75248                 0.938765       -27.66888      0.008417887       -142.5162                0               0                0               0
1.75908                0.9367734       -27.97747      0.008619162       -146.0386                0               0                0               0
1.76568                0.9347028       -28.29084      0.008826205       -149.5561                0               0                0               0
1.77228                0.9325506       -28.60901      0.009039474       -153.0696                0               0                0               0
1.77888                0.9303142       -28.93204      0.009259443       -156.5802                0               0                0               0
1.78548                0.9279918       -29.25995      0.009486613       -160.0894                0               0                0               0
1.79208                0.9255805       -29.59281      0.009721481       -163.5986                0               0                0               0
1.79868                0.9230779       -29.93068      0.009964559       -167.1096                0               0                0               0
1.80528                0.9204816       -30.27361       0.01021635       -170.6242                0               0                0               0
1.81188                0.9177888       -30.62167       0.01047738       -174.1444                0               0                0               0
1.81848                0.9149969       -30.97494       0.01074812       -177.6723                0               0                0               0
1.82508                0.9121027        -31.3335       0.01102907          178.79                0               0                0               0
1.83168                0.9091032       -31.69743       0.01132069        175.2402                0               0                0               0
1.83828                0.9059953       -32.06682       0.01162342        171.6762                0               0                0               0
1.84488                0.9027753       -32.44176       0.01193767        168.0958                0               0                0               0
1.85149                0.8994395       -32.82234       0.01226383        164.4967                0               0                0               0
1.85809                0.8959839       -33.20864       0.01260223         160.877                0               0                0               0
1.86469                0.8924045       -33.60075       0.01295318        157.2347                0               0                0               0
1.87129                0.8886969       -33.99874       0.01331694        153.5678                0               0                0               0
1.87789                0.8848563       -34.40269       0.01369372        149.8746                0               0                0               0
1.88449                0.8808781       -34.81266       0.01408368        146.1536                0               0                0               0
1.89109                0.8767571        -35.2287       0.01448694        142.4034                0               0                0               0
1.89769                0.8724881       -35.65084       0.01490356        138.6226                0               0                0               0
1.90429                0.8680657        -36.0791       0.01533355        134.8103                0               0                0               0
1.91089                0.8634844       -36.51348       0.01577687        130.9655                0               0                0               0
1.91749                0.8587385       -36.95396       0.01623342        127.0874                0               0                0               0
1.92409                0.8538225       -37.40051       0.01670306        123.1756                0               0                0               0
1.93069                0.8487303       -37.85303       0.01718558        119.2297                0               0                0               0
1.93729                0.8434564       -38.31147       0.01768075        115.2494                0               0                0               0
1.94389                 0.837995       -38.77567       0.01818825        111.2347                0               0                0               0
1.9505                 0.8323406       -39.24551       0.01870774        107.1857                0               0                0               0
1.9571                 0.8264875        -39.7208       0.01923884        103.1025                0               0                0               0
1.9637                 0.8204304       -40.20133       0.01978109        98.98548                0               0                0               0
1.9703                 0.8141642       -40.68686       0.02033402        94.83507                0               0                0               0
1.9769                  0.807684       -41.17711        0.0208971         90.6518                0               0                0               0
1.9835                 0.8009851       -41.67177       0.02146978        86.43628                0               0                0               0
1.9901                 0.7940631       -42.17051       0.02205145        82.18918                0               0                0               0
1.9967                 0.7869142       -42.67294       0.02264149        77.91126                0               0                0               0
2.0033                 0.7795349       -43.17866       0.02323922        73.60333                0               0                0               0
2.0099                 0.7719217       -43.68721       0.02384394        69.26622                0               0                0               0
2.0165                 0.7640721       -44.19812       0.02445494        64.90083                0               0                0               0
2.0231                 0.7559837       -44.71086       0.02507146        60.50808                0               0                0               0
2.0297                 0.7476546       -45.22486       0.02569272        56.08891                0               0                0               0
2.0363                 0.7390835       -45.73954       0.02631793        51.64427                0               0                0               0
2.0429                 0.7302695       -46.25425       0.02694627        47.17513                0               0                0               0
2.0495                 0.7212123       -46.76831        0.0275769        42.68247                0               0                0               0
2.05611                0.7119119       -47.28099       0.02820897        38.16726                0               0                0               0
2.06271                0.7023689       -47.79153       0.02884162         33.6305                0               0                0               0
2.06931                0.6925847       -48.29908       0.02947398        29.07314                0               0                0               0
2.07591                0.6825607       -48.80279       0.03010515        24.49617                0               0                0               0
2.08251                0.6722993        -49.3017       0.03073426        19.90053                0               0                0               0
2.08911                 0.661803       -49.79481       0.03136039        15.28719                0               0                0               0
2.09571                 0.651075       -50.28106       0.03198268        10.65707                0               0                0               0
2.10231                0.6401192        -50.7593        0.0326002        6.011111                0               0                0               0
2.10891                0.6289397        -51.2283       0.03321207        1.350212                0               0                0               0
2.11551                0.6175413       -51.68671        0.0338174       -3.324724                0               0                0               0
2.12211                0.6059294       -52.13311       0.03441531       -8.012814                0               0                0               0
2.12871                0.5941099       -52.56595       0.03500492       -12.71319                0               0                0               0
2.13531                0.5820891       -52.98353       0.03558536       -17.42501                0               0                0               0
2.14191                0.5698742       -53.38403       0.03615579       -22.14742                0               0                0               0
2.14851                0.5574728       -53.76544       0.03671537       -26.87961                0               0                0               0
2.15512                0.5448933       -54.12557       0.03726328       -31.62076                0               0                0               0
2.16172                0.5321447       -54.46201       0.03779871       -36.37009                0               0                0               0
2.16832                0.5192369       -54.77213        0.0383209       -41.12682                0               0                0               0
2.17492                0.5061805       -55.05301       0.03882908       -45.89017                0               0                0               0
2.18152                 0.492987       -55.30143       0.03932252        -50.6594                0               0                0               0
2.18812                 0.479669       -55.51382       0.03980052       -55.43377                0               0                0               0
2.19472                0.4662401       -55.68623       0.04026239       -60.21254                0               0                0               0
2.20132                0.4527151       -55.81425        0.0407075         -64.995                0               0                0               0
2.20792                0.4391102       -55.89298       0.04113522       -69.78044                0               0                0               0
2.21452                 0.425443       -55.91695       0.04154497       -74.56818                0               0                0               0
2.22112                0.4117328       -55.88003       0.04193621       -79.35751                0               0                0               0
2.22772                0.3980009       -55.77539       0.04230842       -84.14776                0               0                0               0
2.23432                0.3842705       -55.59538       0.04266112       -88.93826                0               0                0               0
2.24092                0.3705673       -55.33138       0.04299388       -93.72836                0               0                0               0
2.24752                0.3569198       -54.97381       0.04330631        -98.5174                0               0                0               0
2.25413                0.3433597       -54.51189       0.04359806       -103.3047                0               0                0               0
2.26073                0.3299219       -53.93364       0.04386879       -108.0897                0               0                0               0
2.26733                0.3166456       -53.22569       0.04411824       -112.8717                0               0                0               0
2.27393                0.3035747       -52.37328       0.04434619       -117.6501                0               0                0               0
2.28053                0.2907582       -51.36016       0.04455244       -122.4243                0               0                0               0
2.28713                0.2782511       -50.16873       0.04473688       -127.1937                0               0                0               0
2.29373                0.2661149       -48.78016       0.04489938       -131.9576                0               0                0               0