! TOUCHSTONE file generated by CST MICROWAVE STUDIO
! Date and time: Tue Mar 11 13:58:22 2025
! Project name: transverse.cst
! Parameters = {Fracture=5; B=12.5; D=160; F=15; Feed=2.85625; L=100; M=30; R=0.384908; S=2; Theta=270; length=57.125; wave=114.25}
! Header version: 2024
! Port assignment regex: !\s*Touchstone port\s*([0-9]+)\s*=\s*(CST MWS port|CST DES external port|CST DES block port)\s*(.+)\s* \(\"(.*)\"\)(\s*mode\s*([0-9]+))?.*
! Touchstone port assignment:
! Touchstone port 1 = CST MWS port 1 ("")
! Touchstone port 2 = CST MWS port 2 ("")
# GHz S MA R 50
1                      0.9975023       -9.737755     0.0005126396        170.5498                0               0                0               0
1.0066                 0.9974343        -9.82345     0.0005086333        164.6229                0               0                0               0
1.0132                  0.997369       -9.909825     0.0005024652         158.802                0               0                0               0
1.0198                 0.9973058       -9.996938     0.0004941039        153.0968                0               0                0               0
1.0264                 0.9972442       -10.08484      0.000483531        147.5203                0               0                0               0
1.033                  0.9971838       -10.17357     0.0004707423        142.0892                0               0                0               0
1.0396                 0.9971235       -10.26319     0.0004557515        136.8259                0               0                0               0
1.0462                 0.9970626        -10.3537     0.0004385929        131.7594                0               0                0               0
1.05281                0.9970002       -10.44516     0.0004193265        126.9286                0               0                0               0
1.05941                0.9969355       -10.53756      0.000398046        122.3852                0               0                0               0
1.06601                0.9968672       -10.63093     0.0003748891        118.1997                0               0                0               0
1.07261                0.9967946       -10.72526      0.000350056        114.4692                0               0                0               0
1.07921                0.9967166       -10.82056     0.0003238359        111.3289                0               0                0               0
1.08581                0.9966324       -10.91679      0.000296653        108.9696                0               0                0               0
1.09241                0.9965411       -11.01394     0.0002691404        107.6603                0               0                0               0
1.09901                0.9964422       -11.11199     0.0002422595        107.7721                0               0                0               0
1.10561                0.9963349        -11.2109     0.0002174807        109.7782                0               0                0               0
1.11221                0.9962188       -11.31063     0.0001969915        114.1575                0               0                0               0
1.11881                0.9960936       -11.41113     0.0001837378        121.0637                0               0                0               0
1.12541                0.9959592       -11.51238     0.0001808324        129.7743                0               0                0               0
1.13201                0.9958154       -11.61432      0.000190144        138.5693                0               0                0               0
1.13861                0.9956624       -11.71692     0.0002112519        145.6885                0               0                0               0
1.14521                0.9955005       -11.82013     0.0002420585        150.3408                0               0                0               0
1.15182                0.9953302       -11.92392     0.0002801509        152.6424                0               0                0               0
1.15842                0.9951518       -12.02827     0.0003235609        153.0649                0               0                0               0
1.16502                0.9949661       -12.13314     0.0003708718        152.0872                0               0                0               0
1.17162                0.9947739       -12.23853     0.0004210896         150.088                0               0                0               0
1.17822                0.9945757       -12.34443     0.0004735001         147.343                0               0                0               0
1.18482                0.9943728       -12.45085      0.000527566        144.0482                0               0                0               0
1.19142                0.9941656       -12.55779      0.000582861        140.3431                0               0                0               0
1.19802                0.9939552       -12.66527     0.0006390295        136.3282                0               0                0               0
1.20462                0.9937423       -12.77333      0.000695761        132.0772                0               0                0               0
1.21122                0.9935277       -12.88201     0.0007527749        127.6447                0               0                0               0
1.21782                 0.993312       -12.99135     0.0008098109        123.0725                0               0                0               0
1.22442                0.9930957       -13.10141     0.0008666226        118.3926                0               0                0               0
1.23102                0.9928793       -13.21225     0.0009229743        113.6304                0               0                0               0
1.23762                0.9926631       -13.32394     0.0009786382        108.8063                0               0                0               0
1.24422                0.9924471       -13.43655      0.001033394        103.9367                0               0                0               0
1.25083                0.9922314       -13.55014      0.001087026        99.03552                0               0                0               0
1.25743                0.9920156       -13.66479      0.001139329         94.1145                0               0                0               0
1.26403                0.9917994       -13.78058      0.001190101        89.18376                0               0                0               0
1.27063                0.9915823       -13.89756      0.001239148        84.25226                0               0                0               0
1.27723                0.9913636       -14.01581      0.001286286        79.32807                0               0                0               0
1.28383                0.9911424       -14.13538      0.001331339        74.41863                0               0                0               0
1.29043                0.9909178       -14.25633      0.001374144        69.53092                0               0                0               0
1.29703                0.9906887        -14.3787      0.001414548        64.67161                0               0                0               0
1.30363                0.9904542       -14.50253      0.001452414        59.84723                0               0                0               0
1.31023                0.9902129       -14.62784      0.001487619        55.06421                0               0                0               0
1.31683                0.9899637       -14.75466      0.001520059        50.32905                0               0                0               0
1.32343                0.9897054       -14.88298       0.00154965        45.64838                0               0                0               0
1.33003                0.9894371       -15.01281       0.00157633        41.02898                0               0                0               0
1.33663                0.9891575       -15.14414      0.001600062        36.47794                0               0                0               0
1.34323                0.9888657       -15.27696      0.001620839        32.00262                0               0                0               0
1.34984                0.9885609       -15.41123      0.001638682        27.61075                0               0                0               0
1.35644                0.9882425       -15.54693      0.001653651        23.31043                0               0                0               0
1.36304                0.9879097       -15.68403       0.00166584        19.11014                0               0                0               0
1.36964                0.9875623       -15.82249      0.001675388        15.01874                0               0                0               0
1.37624                0.9872001       -15.96227      0.001682482        11.04539                0               0                0               0
1.38284                 0.986823       -16.10333      0.001687357        7.199477                0               0                0               0
1.38944                0.9864311       -16.24565      0.001690307        3.490458                0               0                0               0
1.39604                0.9860248        -16.3892      0.001691682     -0.07237596                0               0                0               0
1.40264                0.9856045       -16.53395        0.0016919       -3.480201                0               0                0               0
1.40924                0.9851708       -16.67988      0.001691443       -6.725075                0               0                0               0
1.41584                0.9847243         -16.827      0.001690861       -9.800457                0               0                0               0
1.42244                0.9842659       -16.97531      0.001690772       -12.70184                0               0                0               0
1.42904                0.9837965       -17.12482      0.001691858       -15.42746                0               0                0               0
1.43564                0.9833169       -17.27557      0.001694857       -17.97911                0               0                0               0
1.44224                0.9828279       -17.42759      0.001700552       -20.36282                0               0                0               0
1.44884                0.9823304       -17.58094      0.001709752       -22.58958                0               0                0               0
1.45545                0.9818251       -17.73568      0.001723274       -24.67568                0               0                0               0
1.46205                0.9813128       -17.89188      0.001741915       -26.64278                0               0                0               0
1.46865                0.9807938       -18.04965      0.001766423       -28.51741                0               0                0               0
1.47525                0.9802686       -18.20907       0.00179747       -30.33012                0               0                0               0
1.48185                0.9797374       -18.37024      0.001835622       -32.11401                0               0                0               0
1.48845                   0.9792       -18.53329      0.001881322       -33.90298                0               0                0               0
1.49505                0.9786563       -18.69833      0.001934876       -35.72998                0               0                0               0
1.50165                0.9781056       -18.86547      0.001996444       -37.62519                0               0                0               0
1.50825                0.9775474       -19.03484      0.002066047       -39.61474                0               0                0               0
1.51485                0.9769806       -19.20655      0.002143576       -41.71973                0               0                0               0
1.52145                0.9764041       -19.38072      0.002228809       -43.95588                0               0                0               0
1.52805                0.9758163       -19.55746      0.002321427       -46.33357                0               0                0               0
1.53465                0.9752159       -19.73688      0.002421038       -48.85826                0               0                0               0
1.54125                0.9746008       -19.91906       0.00252719       -51.53115                0               0                0               0
1.54785                0.9739693       -20.10409      0.002639393       -54.34997                0               0                0               0
1.55446                0.9733192       -20.29204      0.002757131       -57.30967                0               0                0               0
1.56106                0.9726486       -20.48297      0.002879872       -60.40322                0               0                0               0
1.56766                0.9719552       -20.67694       0.00300708       -63.62221                0               0                0               0
1.57426                0.9712369       -20.87397      0.003138222       -66.95736                0               0                0               0
1.58086                0.9704914       -21.07409      0.003272773        -70.3989                0               0                0               0
1.58746                0.9697169        -21.2773       0.00341022       -73.93695                0               0                0               0
1.59406                0.9689113       -21.48362      0.003550063       -77.56167                0               0                0               0
1.60066                0.9680727       -21.69302      0.003691825       -81.26347                0               0                0               0
1.60726                0.9671996       -21.90549      0.003835047       -85.03308                0               0                0               0
1.61386                0.9662905       -22.12101      0.003979293       -88.86162                0               0                0               0
1.62046                 0.965344       -22.33956      0.004124152       -92.74063                0               0                0               0
1.62706                0.9643592       -22.56109       0.00426924       -96.66211                0               0                0               0
1.63366                 0.963335       -22.78558      0.004414203       -100.6184                0               0                0               0
1.64026                0.9622711       -23.01301      0.004558717       -104.6024                0               0                0               0
1.64686                0.9611667       -23.24335      0.004702493       -108.6073                0               0                0               0
1.65347                0.9600219        -23.4766      0.004845279       -112.6267                0               0                0               0
1.66007                0.9588366       -23.71275      0.004986862       -116.6544                0               0                0               0
1.66667                0.9576108       -23.95181      0.005127071       -120.6849                0               0                0               0
1.67327                0.9563448        -24.1938      0.005265782       -124.7125                0               0                0               0
1.67987                0.9550388       -24.43877      0.005402922       -128.7323                0               0                0               0
1.68647                0.9536933       -24.68676      0.005538467       -132.7394                0               0                0               0
1.69307                0.9523083       -24.93787      0.005672451       -136.7293                0               0                0               0
1.69967                0.9508845       -25.19217       0.00580497       -140.6978                0               0                0               0
1.70627                0.9494217       -25.44978      0.005936179       -144.6409                0               0                0               0
1.71287                0.9479203       -25.71084      0.006066303       -148.5552                0               0                0               0
1.71947                  0.94638       -25.97548      0.006195635       -152.4375                0               0                0               0
1.72607                0.9448003       -26.24388      0.006324538       -156.2848                0               0                0               0
1.73267                0.9431808        -26.5162      0.006453451       -160.0949                0               0                0               0
1.73927                0.9415205       -26.79265      0.006582886       -163.8658                0               0                0               0
1.74587                0.9398181       -27.07342      0.006713429       -167.5961                0               0                0               0
1.75248                 0.938072       -27.35874      0.006845743       -171.2851                0               0                0               0
1.75908                0.9362804       -27.64881      0.006980557       -174.9325                0               0                0               0
1.76568                0.9344407       -27.94386      0.007118675       -178.5387                0               0                0               0
1.77228                0.9325504       -28.24411      0.007260955        177.8951                0               0                0               0
1.77888                0.9306065       -28.54979       0.00740832        174.3671                0               0                0               0
1.78548                0.9286053       -28.86111      0.007561731        170.8746                0               0                0               0
1.79208                0.9265432       -29.17829      0.007722192        167.4143                0               0                0               0
1.79868                 0.924416       -29.50153       0.00789073        163.9822                0               0                0               0
1.80528                0.9222195       -29.83101      0.008068385        160.5735                0               0                0               0
1.81188                 0.919949       -30.16693      0.008256194         157.183                0               0                0               0
1.81848                0.9175997       -30.50945      0.008455177        153.8048                0               0                0               0
1.82508                0.9151664       -30.85873      0.008666322        150.4325                0               0                0               0
1.83168                0.9126443       -31.21489       0.00889057        147.0598                0               0                0               0
1.83828                0.9100279       -31.57807      0.009128805        143.6798                0               0                0               0
1.84488                 0.907312       -31.94838      0.009381833        140.2858                0               0                0               0
1.85149                0.9044912       -32.32591      0.009650378        136.8713                0               0                0               0
1.85809                0.9015601       -32.71075      0.009935072        133.4299                0               0                0               0
1.86469                0.8985135       -33.10298       0.01023644        129.9557                0               0                0               0
1.87129                0.8953463       -33.50266       0.01055491         126.443                0               0                0               0
1.87789                 0.892053       -33.90986        0.0108908        122.8871                0               0                0               0
1.88449                0.8886288       -34.32462       0.01124432        119.2836                0               0                0               0
1.89109                0.8850684       -34.74699       0.01161555        115.6288                0               0                0               0
1.89769                0.8813669       -35.17704       0.01200451        111.9196                0               0                0               0
1.90429                0.8775196       -35.61482       0.01241107        108.1538                0               0                0               0
1.91089                0.8735213       -36.06037       0.01283503        104.3296                0               0                0               0
1.91749                0.8693672       -36.51378        0.0132761        100.4458                0               0                0               0
1.92409                0.8650525       -36.97511       0.01373389        96.50187                0               0                0               0
1.93069                0.8605722       -37.44443       0.01420794        92.49765                0               0                0               0
1.93729                0.8559212       -37.92184       0.01469773        88.43349                0               0                0               0
1.94389                 0.851094       -38.40745       0.01520264        84.31009                0               0                0               0
1.9505                 0.8460855       -38.90134       0.01572202        80.12849                0               0                0               0
1.9571                   0.84089       -39.40365       0.01625515        75.88997                0               0                0               0
1.9637                 0.8355012       -39.91448       0.01680126        71.59606                0               0                0               0
1.9703                 0.8299134       -40.43397       0.01735953        67.24844                0               0                0               0
1.9769                 0.8241195       -40.96224       0.01792912        62.84893                0               0                0               0
1.9835                 0.8181126       -41.49941       0.01850913        58.39946                0               0                0               0
1.9901                 0.8118855       -42.04561       0.01909863        53.90199                0               0                0               0
1.9967                 0.8054303       -42.60093       0.01969668        49.35856                0               0                0               0
2.0033                 0.7987386       -43.16547       0.02030228        44.77119                0               0                0               0
2.0099                  0.791802       -43.73929       0.02091444        40.14191                0               0                0               0
2.0165                 0.7846115       -44.32242       0.02153214        35.47275                0               0                0               0
2.0231                  0.777158       -44.91486       0.02215433        30.76568                0               0                0               0
2.0297                 0.7694315       -45.51657       0.02277995        26.02264                0               0                0               0
2.0363                 0.7614226       -46.12744       0.02340795        21.24555                0               0                0               0
2.0429                 0.7531211       -46.74732       0.02403724        16.43623                0               0                0               0
2.0495                 0.7445171       -47.37598       0.02466673        11.59648                0               0                0               0
2.05611                0.7356007       -48.01311       0.02529535        6.728024                0               0                0               0
2.06271                 0.726362       -48.65831       0.02592199        1.832539                0               0                0               0
2.06931                0.7167915       -49.31109       0.02654556       -3.088366                0               0                0               0
2.07591                  0.70688       -49.97085       0.02716499       -8.033141                0               0                0               0
2.08251                 0.696619       -50.63688       0.02777917       -13.00029                0               0                0               0
2.08911                0.6860002       -51.30832       0.02838702       -17.98838                0               0                0               0
2.09571                0.6750168       -51.98419        0.0289875       -22.99603                0               0                0               0
2.10231                0.6636623       -52.66333       0.02957951       -28.02192                0               0                0               0
2.10891                0.6519317       -53.34444       0.03016203       -33.06476                0               0                0               0
2.11551                0.6398209       -54.02601       0.03073402       -38.12332                0               0                0               0
2.12211                0.6273274       -54.70633       0.03129447       -43.19644                0               0                0               0
2.12871                0.6144502       -55.38347       0.03184237       -48.28296                0               0                0               0
2.13531                0.6011899       -56.05527       0.03237677       -53.38179                0               0                0               0
2.14191                0.5875488       -56.71926       0.03289669       -58.49187                0               0                0               0
2.14851                0.5735311       -57.37269       0.03340123       -63.61218                0               0                0               0
2.15512                0.5591432       -58.01247       0.03388949       -68.74172                0               0                0               0
2.16172                0.5443934        -58.6351       0.03436059       -73.87953                0               0                0               0
2.16832                0.5292926       -59.23666        0.0348137        -79.0247                0               0                0               0
2.17492                0.5138536       -59.81273       0.03524803        -84.1763                0               0                0               0
2.18152                0.4980923        -60.3583       0.03566279       -89.33346                0               0                0               0
2.18812                0.4820268       -60.86772       0.03605726       -94.49532                0               0                0               0
2.19472                0.4656782       -61.33456       0.03643075       -99.66104                0               0                0               0
2.20132                0.4490706       -61.75147       0.03678261       -104.8298                0               0                0               0
2.20792                0.4322312       -62.11007       0.03711222       -110.0008                0               0                0               0
2.21452                0.4151905        -62.4007       0.03741903       -115.1732                0               0                0               0
2.22112                0.3979831       -62.61221        0.0377025       -120.3463                0               0                0               0
2.22772                0.3806474        -62.7317       0.03796216       -125.5193                0               0                0               0
2.23432                0.3632266       -62.74412       0.03819758       -130.6914                0               0                0               0
2.24092                0.3457691       -62.63189       0.03840838       -135.8619                0               0                0               0
2.24752                0.3283295       -62.37435       0.03859423         -141.03                0               0                0               0
2.25413                0.3109695       -61.94718       0.03875485        -146.195                0               0                0               0
2.26073                0.2937595       -61.32172       0.03889001       -151.3561                0               0                0               0
2.26733                0.2767805       -60.46418       0.03899953       -156.5125                0               0                0               0
2.27393                 0.260126       -59.33481       0.03908328       -161.6636                0               0                0               0
2.28053                0.2439053       -57.88733       0.03914119       -166.8086                0               0                0               0
2.28713                0.2282468       -56.06849       0.03917325       -171.9468                0               0                0               0
2.29373                 0.213302       -53.81874       0.03917948       -177.0773                0               0                0               0