! TOUCHSTONE file generated by CST MICROWAVE STUDIO
! Date and time: Tue Mar 11 13:56:22 2025
! Project name: transverse.cst
! Parameters = {Fracture=5; B=12.5; D=160; F=15; Feed=2.85625; L=100; M=30; R=0.384908; S=1; Theta=0; length=57.125; wave=114.25}
! Header version: 2024
! Port assignment regex: !\s*Touchstone port\s*([0-9]+)\s*=\s*(CST MWS port|CST DES external port|CST DES block port)\s*(.+)\s* \(\"(.*)\"\)(\s*mode\s*([0-9]+))?.*
! Touchstone port assignment:
! Touchstone port 1 = CST MWS port 1 ("")
! Touchstone port 2 = CST MWS port 2 ("")
# GHz S MA R 50
1                      0.9974726       -9.757072     0.0004961396        174.6319                0               0                0               0
1.0066                 0.9973969       -9.842858     0.0004933447        168.6851                0               0                0               0
1.0132                 0.9973236       -9.929245     0.0004884228        162.8332                0               0                0               0
1.0198                 0.9972527       -10.01628     0.0004813313        157.0839                0               0                0               0
1.0264                 0.9971838       -10.10402     0.0004720381        151.4475                0               0                0               0
1.033                  0.9971166       -10.19252     0.0004605237         145.938                0               0                0               0
1.0396                 0.9970504       -10.28182     0.0004467825        140.5736                0               0                0               0
1.0462                 0.9969848       -10.37195     0.0004308262        135.3786                0               0                0               0
1.05281                0.9969189       -10.46296     0.0004126866         130.385                0               0                0               0
1.05941                0.9968519       -10.55488     0.0003924215        125.6365                0               0                0               0
1.06601                 0.996783       -10.64773     0.0003701225        121.1925                0               0                0               0
1.07261                0.9967114       -10.74152     0.0003459279        117.1358                0               0                0               0
1.07921                0.9966361       -10.83627     0.0003200426        113.5837                0               0                0               0
1.08581                0.9965562       -10.93196     0.0002927727         110.706                0               0                0               0
1.09241                0.9964711        -11.0286     0.0002645841        108.7523                0               0                0               0
1.09901                0.9963797       -11.12617     0.0002362057        108.0914                0               0                0               0
1.10561                0.9962814       -11.22464     0.0002088083        109.2568                0               0                0               0
1.11221                0.9961756         -11.324     0.0001842891         112.947                0               0                0               0
1.11881                0.9960618        -11.4242     0.0001655901         119.808                0               0                0               0
1.12541                0.9959396       -11.52523     0.0001565772         129.702                0               0                0               0
1.13201                0.9958088       -11.62703     0.0001605837        140.8286                0               0                0               0
1.13861                0.9956694       -11.72956     0.0001781924        150.4564                0               0                0               0
1.14521                0.9955211        -11.8328     0.0002071463        157.0016                0               0                0               0
1.15182                0.9953643       -11.93671     0.0002443839        160.4819                0               0                0               0
1.15842                0.9951994       -12.04125     0.0002874357         161.577                0               0                0               0
1.16502                0.9950267       -12.14639     0.0003346247        160.9704                0               0                0               0
1.17162                0.9948468       -12.25212      0.000384847         159.174                0               0                0               0
1.17822                0.9946603       -12.35841     0.0004373519        156.5403                0               0                0               0
1.18482                0.9944679       -12.46525     0.0004915977        153.3079                0               0                0               0
1.19142                0.9942706       -12.57265     0.0005471666        149.6402                0               0                0               0
1.19802                 0.994069       -12.68062     0.0006037157        145.6509                0               0                0               0
1.20462                 0.993864       -12.78917     0.0006609484        141.4211                0               0                0               0
1.21122                0.9936565       -12.89833     0.0007185972        137.0098                0               0                0               0
1.21782                 0.993447       -13.00813     0.0007764138         132.461                0               0                0               0
1.22442                0.9932365       -13.11863     0.0008341627        127.8082                0               0                0               0
1.23102                0.9930254       -13.22986     0.0008916179        123.0775                0               0                0               0
1.23762                0.9928143        -13.3419     0.0009485604        118.2896                0               0                0               0
1.24422                0.9926034       -13.45481      0.001004777        113.4612                0               0                0               0
1.25083                0.9923931       -13.56866      0.001060062        108.6063                0               0                0               0
1.25743                0.9921832       -13.68352      0.001114212        103.7364                0               0                0               0
1.26403                0.9919738       -13.79946      0.001167035        98.86183                0               0                0               0
1.27063                0.9917645       -13.91657      0.001218342        93.99139                0               0                0               0
1.27723                0.9915549       -14.03492      0.001267955        89.13315                0               0                0               0
1.28383                0.9913444       -14.15458      0.001315704        84.29447                0               0                0               0
1.29043                0.9911321       -14.27561      0.001361432         79.4823                0               0                0               0
1.29703                0.9909172       -14.39808      0.001404994        74.70328                0               0                0               0
1.30363                0.9906986       -14.52205      0.001446259        69.96387                0               0                0               0
1.31023                0.9904752       -14.64755      0.001485114        65.27046                0               0                0               0
1.31683                0.9902458       -14.77464      0.001521464        60.62947                0               0                0               0
1.32343                0.9900092       -14.90332      0.001555237        56.04737                0               0                0               0
1.33003                 0.989764       -15.03364      0.001586383        51.53084                0               0                0               0
1.33663                0.9895092       -15.16559      0.001614881        47.08667                0               0                0               0
1.34323                0.9892434       -15.29917      0.001640739        42.72191                0               0                0               0
1.34984                0.9889653       -15.43439      0.001664001        38.44385                0               0                0               0
1.35644                0.9886743       -15.57121      0.001684744        34.25996                0               0                0               0
1.36304                0.9883691       -15.70961      0.001703091        30.17793                0               0                0               0
1.36964                0.9880491       -15.84957      0.001719208        26.20557                0               0                0               0
1.37624                0.9877135       -15.99105      0.001733308        22.35071                0               0                0               0
1.38284                 0.987362       -16.13402      0.001745662        18.62106                0               0                0               0
1.38944                0.9869942       -16.27844      0.001756594        15.02399                0               0                0               0
1.39604                0.9866101       -16.42426      0.001766489        11.56628                0               0                0               0
1.40264                0.9862096       -16.57146      0.001775796        8.253749                0               0                0               0
1.40924                0.9857932       -16.72001      0.001785025        5.090862                0               0                0               0
1.41584                 0.985361       -16.86989       0.00179475        2.080249                0               0                0               0
1.42244                0.9849137       -17.02107      0.001805604      -0.7778356                0               0                0               0
1.42904                0.9844519       -17.17355       0.00181827       -3.486045                0               0                0               0
1.43564                0.9839766       -17.32735      0.001833478       -6.050448                0               0                0               0
1.44224                0.9834882       -17.48246      0.001851981        -8.48093                0               0                0               0
1.44884                0.9829877       -17.63894      0.001874546       -10.79141                0               0                0               0
1.45545                0.9824758        -17.7968      0.001901928       -12.99981                0               0                0               0
1.46205                0.9819536       -17.95612      0.001934851       -15.12769                0               0                0               0
1.46865                0.9814216       -18.11695      0.001973979        -17.1996                0               0                0               0
1.47525                0.9808804       -18.27938        0.0020199       -19.24203                0               0                0               0
1.48185                0.9803305        -18.4435        0.0020731        -21.2823                0               0                0               0
1.48845                0.9797721        -18.6094      0.002133957       -23.34719                0               0                0               0
1.49505                0.9792053        -18.7772      0.002202727       -25.46176                0               0                0               0
1.50165                0.9786301       -18.94702      0.002279547       -27.64825                0               0                0               0
1.50825                 0.978046       -19.11896      0.002364435        -29.9254                0               0                0               0
1.51485                0.9774523       -19.29316      0.002457306       -32.30795                0               0                0               0
1.52145                0.9768483       -19.46975      0.002557975       -34.80657                0               0                0               0
1.52805                0.9762327       -19.64884      0.002666183       -37.42801                0               0                0               0
1.53465                0.9756043       -19.83054      0.002781601        -40.1755                0               0                0               0
1.54125                0.9749615       -20.01499      0.002903851        -43.0492                0               0                0               0
1.54785                0.9743022       -20.20227      0.003032515       -46.04675                0               0                0               0
1.55446                0.9736246       -20.39249      0.003167151        -49.1638                0               0                0               0
1.56106                0.9729266       -20.58572      0.003307298       -52.39456                0               0                0               0
1.56766                0.9722057       -20.78204      0.003452484       -55.73217                0               0                0               0
1.57426                0.9714597       -20.98151      0.003602236       -59.16909                0               0                0               0
1.58086                 0.970686       -21.18416      0.003756084        -62.6974                0               0                0               0
1.58746                0.9698824       -21.39003      0.003913564         -66.309                0               0                0               0
1.59406                0.9690462       -21.59913      0.004074221       -69.99586                0               0                0               0
1.60066                0.9681754       -21.81146      0.004237618       -73.75003                0               0                0               0
1.60726                0.9672676       -22.02701      0.004403329       -77.56382                0               0                0               0
1.61386                0.9663208       -22.24576      0.004570952        -81.4298                0               0                0               0
1.62046                0.9653332       -22.46767      0.004740104       -85.34087                0               0                0               0
1.62706                 0.964303        -22.6927      0.004910428       -89.29026                0               0                0               0
1.63366                0.9632288        -22.9208      0.005081592       -93.27152                0               0                0               0
1.64026                0.9621095       -23.15194      0.005253295       -97.27855                0               0                0               0
1.64686                0.9609442       -23.38605      0.005425269       -101.3056                0               0                0               0
1.65347                0.9597323       -23.62309       0.00559728       -105.3471                0               0                0               0
1.66007                0.9584731       -23.86302      0.005769131       -109.3981                0               0                0               0
1.66667                0.9571666       -24.10581      0.005940671       -113.4536                0               0                0               0
1.67327                0.9558129       -24.35145      0.006111791        -117.509                0               0                0               0
1.67987                0.9544121        -24.5999      0.006282428       -121.5601                0               0                0               0
1.68647                0.9529646        -24.8512      0.006452573        -125.603                0               0                0               0
1.69307                 0.951471       -25.10535      0.006622273       -129.6338                0               0                0               0
1.69967                0.9499316       -25.36241      0.006791628       -133.6492                0               0                0               0
1.70627                0.9483472       -25.62243      0.006960803       -137.6461                0               0                0               0
1.71287                0.9467183        -25.8855      0.007130025       -141.6216                0               0                0               0
1.71947                0.9450451       -26.15174      0.007299586       -145.5733                0               0                0               0
1.72607                0.9433282       -26.42126      0.007469846       -149.4992                0               0                0               0
1.73267                0.9415675       -26.69421      0.007641235       -153.3973                0               0                0               0
1.73927                0.9397629       -26.97077      0.007814251       -157.2665                0               0                0               0
1.74587                 0.937914       -27.25111      0.007989461       -161.1058                0               0                0               0
1.75248                0.9360201       -27.53545      0.008167503       -164.9147                0               0                0               0
1.75908                0.9340798       -27.82398      0.008349075       -168.6934                0               0                0               0
1.76568                0.9320918       -28.11695      0.008534941       -172.4423                0               0                0               0
1.77228                0.9300541       -28.41457      0.008725922       -176.1625                0               0                0               0
1.77888                0.9279642        -28.7171      0.008922889       -179.8555                0               0                0               0
1.78548                0.9258193       -29.02477      0.009126756        176.4765                0               0                0               0
1.79208                0.9236162       -29.33782      0.009338471        172.8309                0               0                0               0
1.79868                0.9213512       -29.65647      0.009559011        169.2045                0               0                0               0
1.80528                0.9190202       -29.98096      0.009789363        165.5939                0               0                0               0
1.81188                0.9166186       -30.31149       0.01003051        161.9949                0               0                0               0
1.81848                0.9141417       -30.64827       0.01028344        158.4034                0               0                0               0
1.82508                0.9115844       -30.99147       0.01054911        154.8145                0               0                0               0
1.83168                0.9089414       -31.34126       0.01082844        151.2236                0               0                0               0
1.83828                0.9062071       -31.69779        0.0111223        147.6256                0               0                0               0
1.84488                0.9033756       -32.06118        0.0114315        144.0156                0               0                0               0
1.85149                0.9004414       -32.43152        0.0117568        140.3887                0               0                0               0
1.85809                0.8973984        -32.8089       0.01209886          136.74                0               0                0               0
1.86469                0.8942408       -33.19339       0.01245825         133.065                0               0                0               0
1.87129                0.8909629       -33.58501       0.01283548        129.3596                0               0                0               0
1.87789                0.8875589        -33.9838       0.01323093        125.6196                0               0                0               0
1.88449                0.8840232       -34.38975        0.0136449        121.8417                0               0                0               0
1.89109                0.8803505       -34.80287       0.01407758        118.0227                0               0                0               0
1.89769                0.8765355       -35.22313       0.01452907          114.16                0               0                0               0
1.90429                0.8725732        -35.6505       0.01499935        110.2513                0               0                0               0
1.91089                0.8684588       -36.08496       0.01548833         106.295                0               0                0               0
1.91749                0.8641876       -36.52647        0.0159958        102.2897                0               0                0               0
1.92409                0.8597553       -36.97498       0.01652149        98.23443                0               0                0               0
1.93069                0.8551576       -37.43046       0.01706501        94.12872                0               0                0               0
1.93729                0.8503904        -37.8929       0.01762591        89.97239                0               0                0               0
1.94389                0.8454496       -38.36226       0.01820365        85.76556                0               0                0               0
1.9505                 0.8403315       -38.83854       0.01879764        81.50865                0               0                0               0
1.9571                  0.835032       -39.32176        0.0194072        77.20233                0               0                0               0
1.9637                 0.8295472        -39.8119       0.02003159        72.84746                0               0                0               0
1.9703                 0.8238731       -40.30901       0.02067002        68.44509                0               0                0               0
1.9769                 0.8180055       -40.81312       0.02132165        63.99642                0               0                0               0
1.9835                 0.8119399        -41.3243       0.02198558        59.50275                0               0                0               0
1.9901                  0.805672       -41.84259       0.02266087        54.96548                0               0                0               0
1.9967                 0.7991966       -42.36808       0.02334653        50.38609                0               0                0               0
2.0033                 0.7925085       -42.90081       0.02404154         45.7661                0               0                0               0
2.0099                 0.7856021       -43.44088       0.02474485        41.10706                0               0                0               0
2.0165                 0.7784714       -43.98834       0.02545536        36.41054                0               0                0               0
2.0231                   0.77111       -44.54324       0.02617198        31.67811                0               0                0               0
2.0297                  0.763511       -45.10563       0.02689355        26.91134                0               0                0               0
2.0363                 0.7556672       -45.67551       0.02761891        22.11178                0               0                0               0
2.0429                 0.7475711       -46.25286       0.02834689        17.28095                0               0                0               0
2.0495                 0.7392147       -46.83761       0.02907628        12.42037                0               0                0               0
2.05611                0.7305898       -47.42964       0.02980589         7.53149                0               0                0               0
2.06271                0.7216879       -48.02878       0.03053448        2.615754                0               0                0               0
2.06931                0.7125005       -48.63477       0.03126084       -2.325446                0               0                0               0
2.07591                0.7030191        -49.2473       0.03198374       -7.290755                0               0                0               0
2.08251                0.6932349       -49.86591       0.03270193       -12.27885                0               0                0               0
2.08911                  0.68314       -50.49009       0.03341419       -17.28847                0               0                0               0
2.09571                 0.672726       -51.11919       0.03411929       -22.31837                0               0                0               0
2.10231                0.6619854       -51.75242         0.034816       -27.36735                0               0                0               0
2.10891                0.6509113       -52.38885       0.03550311       -32.43426                0               0                0               0
2.11551                0.6394973       -53.02738       0.03617941       -37.51799                0               0                0               0
2.12211                 0.627738       -53.66675       0.03684371       -42.61745                0               0                0               0
2.12871                0.6156291        -54.3055       0.03749485       -47.73159                0               0                0               0
2.13531                0.6031675       -54.94191       0.03813166        -52.8594                0               0                0               0
2.14191                0.5903512       -55.57407         0.038753       -57.99989                0               0                0               0
2.14851                0.5771799       -56.19977       0.03935778       -63.15213                0               0                0               0
2.15512                 0.563655        -56.8165       0.03994489       -68.31517                0               0                0               0
2.16172                0.5497795       -57.42141        0.0405133       -73.48814                0               0                0               0
2.16832                0.5355584       -58.01129       0.04106197       -78.67016                0               0                0               0
2.17492                0.5209991       -58.58247       0.04158991       -83.86037                0               0                0               0
2.18152                0.5061106       -59.13081       0.04209617       -89.05797                0               0                0               0
2.18812                0.4909048       -59.65158       0.04257982       -94.26213                0               0                0               0
2.19472                0.4753961       -60.13945       0.04303999       -99.47207                0               0                0               0
2.20132                0.4596013       -60.58827       0.04347584        -104.687                0               0                0               0
2.20792                0.4435404       -60.99107       0.04388657       -109.9062                0               0                0               0
2.21452                0.4272364       -61.33979       0.04427145        -115.129                0               0                0               0
2.22112                0.4107159        -61.6252       0.04462977       -120.3545                0               0                0               0
2.22772                0.3940088       -61.83657       0.04496088        -125.582                0               0                0               0
2.23432                0.3771494       -61.96145       0.04526418       -130.8109                0               0                0               0
2.24092                0.3601764       -61.98531       0.04553913       -136.0405                0               0                0               0
2.24752                0.3431339       -61.89112       0.04578523         -141.27                0               0                0               0
2.25413                 0.326072        -61.6588       0.04600205       -146.4987                0               0                0               0
2.26073                0.3090478       -61.26468        0.0461892        -151.726                0               0                0               0
2.26733                0.2921268       -60.68069       0.04634637       -156.9512                0               0                0               0
2.27393                0.2753851       -59.87358       0.04647329       -162.1735                0               0                0               0
2.28053                0.2589109       -58.80401       0.04656974       -167.3923                0               0                0               0
2.28713                0.2428084       -57.42567        0.0466356       -172.6069                0               0                0               0
2.29373                0.2272004       -55.68474       0.04667078       -177.8166                0               0                0               0