! TOUCHSTONE file generated by CST MICROWAVE STUDIO
! Date and time: Tue Mar 11 13:57:43 2025
! Project name: transverse.cst
! Parameters = {Fracture=1; B=12.5; D=160; F=15; Feed=2.85625; L=100; M=30; R=0.384908; S=2; Theta=180; length=57.125; wave=114.25}
! Header version: 2024
! Port assignment regex: !\s*Touchstone port\s*([0-9]+)\s*=\s*(CST MWS port|CST DES external port|CST DES block port)\s*(.+)\s* \(\"(.*)\"\)(\s*mode\s*([0-9]+))?.*
! Touchstone port assignment:
! Touchstone port 1 = CST MWS port 1 ("")
! Touchstone port 2 = CST MWS port 2 ("")
# GHz S MA R 50
1                      0.9975395       -9.990478     0.0004691352         173.092                0               0                0               0
1.00658                0.9974678       -10.07788     0.0004669214        167.5501                0               0                0               0
1.01316                0.9973978       -10.16591     0.0004628216        162.1267                0               0                0               0
1.01974                0.9973291       -10.25463     0.0004568178        156.8343                0               0                0               0
1.02632                0.9972615       -10.34407     0.0004489061        151.6892                0               0                0               0
1.03289                0.9971945       -10.43428     0.0004390999        146.7116                0               0                0               0
1.03947                0.9971274       -10.52529     0.0004274324        141.9275                0               0                0               0
1.04605                0.9970596       -10.61713      0.000413962        137.3695                0               0                0               0
1.05263                0.9969906       -10.70983     0.0003987782        133.0795                0               0                0               0
1.05921                0.9969194       -10.80341     0.0003820108        129.1111                0               0                0               0
1.06579                0.9968454       -10.89788     0.0003638421        125.5332                0               0                0               0
1.07237                0.9967677       -10.99326      0.000344525        122.4344                0               0                0               0
1.07895                0.9966856       -11.08954     0.0003244089        119.9282                0               0                0               0
1.08553                0.9965983       -11.18672     0.0003039756        118.1576                0               0                0               0
1.09211                0.9965052       -11.28478     0.0002838883        117.2955                0               0                0               0
1.09868                0.9964055       -11.38371     0.0002650507        117.5343                0               0                0               0
1.10526                0.9962988       -11.48349      0.000248661        119.0493                0               0                0               0
1.11184                0.9961845       -11.58409     0.0002362169        121.9191                0               0                0               0
1.11842                0.9960625       -11.68548      0.000229391        126.0049                0               0                0               0
1.125                  0.9959322       -11.78763     0.0002297102        130.8548                0               0                0               0
1.13158                0.9957937       -11.89051     0.0002381171        135.7601                0               0                0               0
1.13816                0.9956471       -11.99409     0.0002546887        139.9992                0               0                0               0
1.14474                0.9954922       -12.09834     0.0002787333        143.0917                0               0                0               0
1.15132                0.9953294       -12.20323     0.0003091516        144.8737                0               0                0               0
1.15789                0.9951591       -12.30873     0.0003447827        145.4101                0               0                0               0
1.16447                0.9949817       -12.41483     0.0003845934         144.872                0               0                0               0
1.17105                0.9947976       -12.52151     0.0004277322         143.453                0               0                0               0
1.17763                0.9946076       -12.62876     0.0004735152        141.3292                0               0                0               0
1.18421                0.9944121       -12.73658     0.0005213917        138.6474                0               0                0               0
1.19079                0.9942118       -12.84499      0.000570909        135.5246                0               0                0               0
1.19737                0.9940075       -12.95399     0.0006216858        132.0528                0               0                0               0
1.20395                0.9937998       -13.06361     0.0006733908        128.3041                0               0                0               0
1.21053                0.9935894       -13.17387     0.0007257291        124.3348                0               0                0               0
1.21711                0.9933766       -13.28481      0.000778431        120.1896                0               0                0               0
1.22368                0.9931621       -13.39647     0.0008312466        115.9041                0               0                0               0
1.23026                0.9929463       -13.50891     0.0008839399        111.5071                0               0                0               0
1.23684                0.9927294       -13.62217     0.0009362863        107.0221                0               0                0               0
1.24342                0.9925116       -13.73631     0.0009880706        102.4684                0               0                0               0
1.25                   0.9922928        -13.8514      0.001039086        97.86236                0               0                0               0
1.25658                0.9920732        -13.9675      0.001089132        93.21795                0               0                0               0
1.26316                0.9918524       -14.08466      0.001138019        88.54714                0               0                0               0
1.26974                0.9916301       -14.20294      0.001185561        83.86048                0               0                0               0
1.27632                0.9914056       -14.32241      0.001231584        79.16739                0               0                0               0
1.28289                0.9911785       -14.44312      0.001275922        74.47645                0               0                0               0
1.28947                0.9909481       -14.56513      0.001318419        69.79553                0               0                0               0
1.29605                0.9907134       -14.68847      0.001358931        65.13208                0               0                0               0
1.30263                0.9904737       -14.81318      0.001397327        60.49318                0               0                0               0
1.30921                0.9902278        -14.9393      0.001433491        55.88569                0               0                0               0
1.31579                 0.989975       -15.06684      0.001467322        51.31638                0               0                0               0
1.32237                0.9897142       -15.19584      0.001498739        46.79196                0               0                0               0
1.32895                0.9894443       -15.32629       0.00152768        42.31918                0               0                0               0
1.33553                0.9891646       -15.45819      0.001554105        37.90489                0               0                0               0
1.34211                 0.988874       -15.59155      0.001578002         33.5561                0               0                0               0
1.34868                0.9885719       -15.72635      0.001599384        29.27998                0               0                0               0
1.35526                0.9882575       -15.86257      0.001618296        25.08389                0               0                0               0
1.36184                0.9879301       -16.00019      0.001634816        20.97538                0               0                0               0
1.36842                0.9875894       -16.13919       0.00164906        16.96219                0               0                0               0
1.375                   0.987235       -16.27954      0.001661184        13.05214                0               0                0               0
1.38158                0.9868669       -16.42122      0.001671388        9.253094                0               0                0               0
1.38816                0.9864848        -16.5642       0.00167992        5.572806                0               0                0               0
1.39474                 0.986089       -16.70846      0.001687076        2.018726                0               0                0               0
1.40132                0.9856797       -16.85398      0.001693207       -1.402225                0               0                0               0
1.40789                0.9852573       -17.00075      0.001698718       -4.683986                0               0                0               0
1.41447                 0.984822       -17.14877      0.001704068       -7.821725                0               0                0               0
1.42105                0.9843748       -17.29803      0.001709774       -10.81229                0               0                0               0
1.42763                0.9839161       -17.44856      0.001716401        -13.6547                0               0                0               0
1.43421                0.9834465       -17.60036       0.00172456       -16.35068                0               0                0               0
1.44079                0.9829668       -17.75348      0.001734902       -18.90511                0               0                0               0
1.44737                0.9824777       -17.90796      0.001748099       -21.32651                0               0                0               0
1.45395                0.9819798       -18.06384      0.001764835       -23.62724                0               0                0               0
1.46053                0.9814735        -18.2212      0.001785784       -25.82355                0               0                0               0
1.46711                0.9809595        -18.3801      0.001811592       -27.93537                0               0                0               0
1.47368                 0.980438       -18.54063      0.001842853       -29.98567                0               0                0               0
1.48026                0.9799093       -18.70289      0.001880092        -31.9997                0               0                0               0
1.48684                0.9793733       -18.86696      0.001923746       -34.00376                0               0                0               0
1.49342                  0.97883       -19.03295       0.00197415       -36.02414                0               0                0               0
1.5                    0.9782788       -19.20097      0.002031532       -38.08576                0               0                0               0
1.50658                0.9777195       -19.37113      0.002096007       -40.21119                0               0                0               0
1.51316                0.9771511       -19.54353      0.002167583       -42.41978                0               0                0               0
1.51974                0.9765727       -19.71828      0.002246169       -44.72717                0               0                0               0
1.52632                0.9759831        -19.8955      0.002331583       -47.14507                0               0                0               0
1.53289                0.9753811       -20.07527      0.002423569       -49.68131                0               0                0               0
1.53947                 0.974765       -20.25769      0.002521809       -52.34017                0               0                0               0
1.54605                0.9741332       -20.44286      0.002625933       -55.12276                0               0                0               0
1.55263                0.9734838       -20.63084      0.002735538       -58.02758                0               0                0               0
1.55921                0.9728152       -20.82169      0.002850194       -61.05097                0               0                0               0
1.56579                0.9721251       -21.01549      0.002969455       -64.18767                0               0                0               0
1.57237                0.9714118       -21.21227      0.003092865       -67.43123                0               0                0               0
1.57895                0.9706732       -21.41207      0.003219968        -70.7744                0               0                0               0
1.58553                0.9699072       -21.61491      0.003350309        -74.2094                0               0                0               0
1.59211                0.9691121       -21.82081      0.003483444       -77.72824                0               0                0               0
1.59868                 0.968286       -22.02977      0.003618936       -81.32283                0               0                0               0
1.60526                0.9674273       -22.24178      0.003756365       -84.98515                0               0                0               0
1.61184                0.9665343       -22.45684      0.003895328       -88.70738                0               0                0               0
1.61842                0.9656057       -22.67493       0.00403544        -92.4819                0               0                0               0
1.625                  0.9646403       -22.89603       0.00417634       -96.30137                0               0                0               0
1.63158                0.9636371       -23.12013      0.004317691       -100.1588                0               0                0               0
1.63816                0.9625953        -23.3472      0.004459181       -104.0474                0               0                0               0
1.64474                0.9615141       -23.57723      0.004600531       -107.9608                0               0                0               0
1.65132                0.9603933        -23.8102      0.004741493        -111.893                0               0                0               0
1.65789                0.9592323       -24.04613      0.004881852        -115.838                0               0                0               0
1.66447                0.9580313       -24.28501      0.005021436       -119.7904                0               0                0               0
1.67105                0.9567899       -24.52686       0.00516011        -123.745                0               0                0               0
1.67763                0.9555085       -24.77171      0.005297784       -127.6969                0               0                0               0
1.68421                 0.954187       -25.01962      0.005434418       -131.6413                0               0                0               0
1.69079                0.9528258       -25.27064       0.00557002        -135.574                0               0                0               0
1.69737                 0.951425       -25.52485      0.005704652       -139.4907                0               0                0               0
1.70395                0.9499846       -25.78234      0.005838438       -143.3878                0               0                0               0
1.71053                0.9485046       -26.04324      0.005971555       -147.2618                0               0                0               0
1.71711                0.9469849       -26.30766      0.006104247       -151.1096                0               0                0               0
1.72368                0.9454253       -26.57575      0.006236824       -154.9283                0               0                0               0
1.73026                0.9438251       -26.84768      0.006369661       -158.7156                0               0                0               0
1.73684                0.9421837       -27.12361        0.0065032       -162.4697                0               0                0               0
1.74342                0.9404999       -27.40373      0.006637954       -166.1889                0               0                0               0
1.75                   0.9387724       -27.68825      0.006774503       -169.8724                0               0                0               0
1.75658                0.9369996       -27.97736      0.006913493       -173.5197                0               0                0               0
1.76316                0.9351793       -28.27127      0.007055635       -177.1311                0               0                0               0
1.76974                0.9333093        -28.5702      0.007201696        179.2926                0               0                0               0
1.77632                0.9313866       -28.87436      0.007352498        175.7502                0               0                0               0
1.78289                0.9294084       -29.18397      0.007508914        172.2393                0               0                0               0
1.78947                0.9273712       -29.49924       0.00767185        168.7573                0               0                0               0
1.79605                0.9252712       -29.82038      0.007842243        165.3008                0               0                0               0
1.80263                0.9231045       -30.14757      0.008021047        161.8658                0               0                0               0
1.80921                0.9208667       -30.48101       0.00820922        158.4477                0               0                0               0
1.81579                0.9185533       -30.82088      0.008407715        155.0415                0               0                0               0
1.82237                0.9161596       -31.16734      0.008617462        151.6417                0               0                0               0
1.82895                0.9136806       -31.52053      0.008839359        148.2425                0               0                0               0
1.83553                0.9111112       -31.88062      0.009074257        144.8379                0               0                0               0
1.84211                0.9084464        -32.2477      0.009322948         141.422                0               0                0               0
1.84868                0.9056808       -32.62191      0.009586153        137.9888                0               0                0               0
1.85526                0.9028091       -33.00334      0.009864518        134.5324                0               0                0               0
1.86184                0.8998262       -33.39209        0.0101586        131.0472                0               0                0               0
1.86842                0.8967267       -33.78823       0.01046887        127.5281                0               0                0               0
1.875                  0.8935055       -34.19183       0.01079568        123.9703                0               0                0               0
1.88158                0.8901571       -34.60296       0.01113932        120.3695                0               0                0               0
1.88816                0.8866766       -35.02168       0.01149995        116.7221                0               0                0               0
1.89474                0.8830588       -35.44806       0.01187765        113.0249                0               0                0               0
1.90132                0.8792986       -35.88214       0.01227239        109.2754                0               0                0               0
1.90789                0.8753911       -36.32399       0.01268406        105.4715                0               0                0               0
1.91447                0.8713311       -36.77367       0.01311244        101.6119                0               0                0               0
1.92105                0.8671138       -37.23125       0.01355725        97.69558                0               0                0               0
1.92763                 0.862734        -37.6968       0.01401812        93.72211                0               0                0               0
1.93421                0.8581864       -38.17041       0.01449461        89.69144                0               0                0               0
1.94079                0.8534661       -38.65215        0.0149862        85.60395                0               0                0               0
1.94737                0.8485673       -39.14213       0.01549232        81.46029                0               0                0               0
1.95395                0.8434845       -39.64044       0.01601232        77.26144                0               0                0               0
1.96053                0.8382119       -40.14719       0.01654552         73.0086                0               0                0               0
1.96711                0.8327434        -40.6625       0.01709119        68.70314                0               0                0               0
1.97368                0.8270726       -41.18648       0.01764853        64.34663                0               0                0               0
1.98026                0.8211927       -41.71923       0.01821672        59.94073                0               0                0               0
1.98684                0.8150966       -42.26086        0.0187949        55.48719                0               0                0               0
1.99342                0.8087768       -42.81147       0.01938217        50.98783                0               0                0               0
2                      0.8022256       -43.37115       0.01997762        46.44449                0               0                0               0
2.00658                0.7954345       -43.93996       0.02058027        41.85907                0               0                0               0
2.01316                0.7883952       -44.51793       0.02118916        37.23344                0               0                0               0
2.01974                0.7810987       -45.10507       0.02180329        32.56944                0               0                0               0
2.02632                0.7735358       -45.70136       0.02242164        27.86894                0               0                0               0
2.03289                0.7656973       -46.30671       0.02304317        23.13371                0               0                0               0
2.03947                0.7575734         -46.921       0.02366685        18.36555                0               0                0               0
2.04605                0.7491544       -47.54402       0.02429161        13.56618                0               0                0               0
2.05263                0.7404307       -48.17553       0.02491639        8.737265                0               0                0               0
2.05921                0.7313926       -48.81516       0.02554012        3.880438                0               0                0               0
2.06579                0.7220307       -49.46249       0.02616171       -1.002726                0               0                0               0
2.07237                 0.712336       -50.11699        0.0267801       -5.910705                0               0                0               0
2.07895                0.7022995         -50.778        0.0273942       -10.84203                0               0                0               0
2.08553                0.6919133       -51.44479       0.02800294       -15.79528                0               0                0               0
2.09211                0.6811698       -52.11644       0.02860526       -20.76908                0               0                0               0
2.09868                0.6700624       -52.79192       0.02920009       -25.76212                0               0                0               0
2.10526                0.6585854       -53.47004       0.02978638       -30.77313                0               0                0               0
2.11184                0.6467344       -54.14941        0.0303631       -35.80087                0               0                0               0
2.11842                0.6345057        -54.8285       0.03092921       -40.84417                0               0                0               0
2.125                  0.6218977       -55.50551       0.03148372       -45.90188                0               0                0               0
2.13158                0.6089097       -56.17847       0.03202562       -50.97291                0               0                0               0
2.13816                0.5955432       -56.84509       0.03255396       -56.05618                0               0                0               0
2.14474                0.5818009       -57.50287       0.03306777       -61.15066                0               0                0               0
2.15132                0.5676879       -58.14893       0.03356615       -66.25537                0               0                0               0
2.15789                0.5532111       -58.78007        0.0340482       -71.36931                0               0                0               0
2.16447                0.5383796       -59.39266       0.03451305       -76.49157                0               0                0               0
2.17105                0.5232047       -59.98266       0.03495986       -81.62122                0               0                0               0
2.17763                0.5077003       -60.54545       0.03538784       -86.75737                0               0                0               0
2.18421                0.4918828       -61.07585       0.03579622       -91.89915                0               0                0               0
2.19079                 0.475771       -61.56796       0.03618427       -97.04571                0               0                0               0
2.19737                0.4593867       -62.01509       0.03655128       -102.1962                0               0                0               0
2.20395                 0.442755       -62.40958       0.03689662       -107.3499                0               0                0               0
2.21053                0.4259039       -62.74266       0.03721967       -112.5059                0               0                0               0
2.21711                 0.408865       -63.00424       0.03751986       -117.6634                0               0                0               0
2.22368                0.3916737       -63.18267       0.03779667       -122.8217                0               0                0               0
2.23026                0.3743699       -63.26439       0.03804963       -127.9799                0               0                0               0
2.23684                 0.356998       -63.23361       0.03827829       -133.1374                0               0                0               0
2.24342                0.3396083       -63.07187       0.03848229       -138.2934                0               0                0               0
2.25                   0.3222571       -62.75746       0.03866129        -143.447                0               0                0               0
2.25658                0.3050087       -62.26482       0.03881501       -148.5977                0               0                0               0
2.26316                0.2879365       -61.56387       0.03894321       -153.7445                0               0                0               0
2.26974                0.2711249       -60.61914       0.03904572       -158.8867                0               0                0               0
2.27632                0.2546718       -59.38913       0.03912243       -164.0237                0               0                0               0
2.28289                 0.238692        -57.8257       0.03917324       -169.1545                0               0                0               0
2.28947                0.2233201         -55.874       0.03919815       -174.2785                0               0                0               0