! TOUCHSTONE file generated by CST MICROWAVE STUDIO
! Date and time: Tue Mar 11 13:56:33 2025
! Project name: transverse.cst
! Parameters = {Fracture=1; B=10; D=160; F=5; Feed=2.85625; L=100; M=30; R=0.384908; S=1; Theta=90; length=57.125; wave=114.25}
! Header version: 2024
! Port assignment regex: !\s*Touchstone port\s*([0-9]+)\s*=\s*(CST MWS port|CST DES external port|CST DES block port)\s*(.+)\s* \(\"(.*)\"\)(\s*mode\s*([0-9]+))?.*
! Touchstone port assignment:
! Touchstone port 1 = CST MWS port 1 ("")
! Touchstone port 2 = CST MWS port 2 ("")
# GHz S MA R 50
1                       0.997733        -10.0061     0.0003350769       -152.2732                0               0                0               0
1.00658                0.9976336       -10.09579     0.0003489156       -156.4555                0               0                0               0
1.01316                 0.997529       -10.18581     0.0003621001       -160.6631                0               0                0               0
1.01974                0.9974196       -10.27615      0.000374558       -164.8815                0               0                0               0
1.02632                0.9973063       -10.36678     0.0003862229       -169.0973                0               0                0               0
1.03289                  0.99719        -10.4577     0.0003970353       -173.2978                0               0                0               0
1.03947                0.9970715       -10.54893      0.000406943       -177.4708                0               0                0               0
1.04605                0.9969516       -10.64046      0.000415902        178.3955                0               0                0               0
1.05263                0.9968311       -10.73232     0.0004238775         174.313                0               0                0               0
1.05921                0.9967107       -10.82455     0.0004308454        170.2937                0               0                0               0
1.06579                0.9965913       -10.91717      0.000436793        166.3499                0               0                0               0
1.07237                0.9964734       -11.01023     0.0004417212        162.4943                0               0                0               0
1.07895                0.9963575       -11.10379     0.0004456451        158.7402                0               0                0               0
1.08553                 0.996244       -11.19791     0.0004485971        155.1012                0               0                0               0
1.09211                0.9961331       -11.29263     0.0004506278         151.592                0               0                0               0
1.09868                 0.996025       -11.38803      0.000451809        148.2275                0               0                0               0
1.10526                0.9959194       -11.48417     0.0004522354        145.0231                0               0                0               0
1.11184                0.9958163       -11.58111     0.0004520276        141.9943                0               0                0               0
1.11842                0.9957151       -11.67892     0.0004513336        139.1563                0               0                0               0
1.125                  0.9956154       -11.77765     0.0004503319        136.5234                0               0                0               0
1.13158                0.9955164       -11.87736     0.0004492316        134.1079                0               0                0               0
1.13816                0.9954173        -11.9781     0.0004482738        131.9191                0               0                0               0
1.14474                0.9953175        -12.0799       0.00044773        129.9617                0               0                0               0
1.15132                0.9952155        -12.1828     0.0004478984        128.2344                0               0                0               0
1.15789                0.9951106       -12.28683     0.0004490984         126.728                0               0                0               0
1.16447                0.9950019       -12.39198     0.0004516607        125.4244                0               0                0               0
1.17105                0.9948881       -12.49828     0.0004559156        124.2955                0               0                0               0
1.17763                0.9947682       -12.60572     0.0004621777        123.3035                0               0                0               0
1.18421                0.9946415       -12.71428     0.0004707304        122.4028                0               0                0               0
1.19079                0.9945067       -12.82395     0.0004818107        121.5421                0               0                0               0
1.19737                0.9943634        -12.9347     0.0004955977         120.668                0               0                0               0
1.20395                0.9942108        -13.0465     0.0005122045        119.7294                0               0                0               0
1.21053                0.9940485        -13.1593     0.0005316767        118.6803                0               0                0               0
1.21711                0.9938761       -13.27307     0.0005539958        117.4832                0               0                0               0
1.22368                0.9936934       -13.38777     0.0005790859        116.1101                0               0                0               0
1.23026                0.9935004       -13.50336     0.0006068246        114.5427                0               0                0               0
1.23684                0.9932973       -13.61979      0.000637053        112.7721                0               0                0               0
1.24342                0.9930845       -13.73703     0.0006695865        110.7967                0               0                0               0
1.25                   0.9928622       -13.85505     0.0007042231        108.6216                0               0                0               0
1.25658                0.9926312       -13.97383     0.0007407518        106.2558                0               0                0               0
1.26316                0.9923922       -14.09334     0.0007789571        103.7119                0               0                0               0
1.26974                0.9921461       -14.21357     0.0008186242        101.0039                0               0                0               0
1.27632                0.9918936       -14.33454     0.0008595412        98.14708                0               0                0               0
1.28289                0.9916356       -14.45625     0.0009015021        95.15672                0               0                0               0
1.28947                0.9913732       -14.57872     0.0009443075        92.04803                0               0                0               0
1.29605                0.9911072         -14.702     0.0009877661        88.83565                0               0                0               0
1.30263                0.9908386       -14.82612      0.001031695        85.53353                0               0                0               0
1.30921                0.9905679       -14.95113      0.001075923        82.15485                0               0                0               0
1.31579                0.9902959       -15.07711      0.001120286        78.71194                0               0                0               0
1.32237                0.9900232       -15.20413      0.001164633        75.21635                0               0                0               0
1.32895                0.9897501       -15.33226      0.001208825        71.67886                0               0                0               0
1.33553                0.9894767       -15.46158      0.001252735        68.10951                0               0                0               0
1.34211                0.9892033        -15.5922      0.001296251        64.51769                0               0                0               0
1.34868                0.9889295        -15.7242      0.001339275        60.91218                0               0                0               0
1.35526                 0.988655       -15.85766      0.001381723        57.30118                0               0                0               0
1.36184                0.9883793       -15.99269      0.001423532        53.69238                0               0                0               0
1.36842                0.9881017       -16.12937      0.001464656        50.09298                0               0                0               0
1.375                   0.987821       -16.26779      0.001505066        46.50973                0               0                0               0
1.38158                0.9875363       -16.40801       0.00154476        42.94892                0               0                0               0
1.38816                0.9872465       -16.55011      0.001583752        39.41641                0               0                0               0
1.39474                0.9869501       -16.69414      0.001622086        35.91761                0               0                0               0
1.40132                0.9866459       -16.84017      0.001659826        32.45745                0               0                0               0
1.40789                0.9863323       -16.98823      0.001697064        29.04039                0               0                0               0
1.41447                0.9860077       -17.13834      0.001733918        25.67032                0               0                0               0
1.42105                0.9856709       -17.29054      0.001770536        22.35056                0               0                0               0
1.42763                0.9853204       -17.44483      0.001807089        19.08376                0               0                0               0
1.43421                0.9849547       -17.60122      0.001843778        15.87188                0               0                0               0
1.44079                0.9845729       -17.75969      0.001880829        12.71607                0               0                0               0
1.44737                0.9841734       -17.92023      0.001918494        9.616655                0               0                0               0
1.45395                0.9837556       -18.08283      0.001957046        6.573037                0               0                0               0
1.46053                0.9833185       -18.24745      0.001996781        3.583663                0               0                0               0
1.46711                0.9828615       -18.41408      0.002038007       0.6459975                0               0                0               0
1.47368                0.9823843       -18.58269      0.002081048       -2.243488                0               0                0               0
1.48026                0.9818861       -18.75326      0.002126234       -5.089292                0               0                0               0
1.48684                0.9813673       -18.92577      0.002173898       -7.896819                0               0                0               0
1.49342                0.9808277        -19.1002      0.002224369        -10.6723                0               0                0               0
1.5                    0.9802676       -19.27654      0.002277965       -13.42264                0               0                0               0
1.50658                0.9796871       -19.45481      0.002334991       -16.15529                0               0                0               0
1.51316                0.9790867       -19.63501       0.00239573       -18.87806                0               0                0               0
1.51974                0.9784669       -19.81718      0.002460438       -21.59886                0               0                0               0
1.52632                0.9778281       -20.00134      0.002529341        -24.3256                0               0                0               0
1.53289                0.9771709       -20.18755      0.002602631       -27.06589                0               0                0               0
1.53947                0.9764954       -20.37587      0.002680462        -29.8269                0               0                0               0
1.54605                0.9758024       -20.56639      0.002762952       -32.61519                0               0                0               0
1.55263                0.9750917       -20.75919      0.002850175       -35.43659                0               0                0               0
1.55921                0.9743635       -20.95438      0.002942173       -38.29607                0               0                0               0
1.56579                0.9736178       -21.15206      0.003038946       -41.19773                0               0                0               0
1.57237                0.9728542       -21.35237      0.003140461       -44.14472                0               0                0               0
1.57895                0.9720722       -21.55543      0.003246652       -47.13931                0               0                0               0
1.58553                0.9712708       -21.76137      0.003357424       -50.18288                0               0                0               0
1.59211                0.9704489       -21.97033      0.003472657       -53.27598                0               0                0               0
1.59868                0.9696054       -22.18246      0.003592209       -56.41841                0               0                0               0
1.60526                0.9687384       -22.39788      0.003715922       -59.60932                0               0                0               0
1.61184                0.9678458       -22.61673      0.003843622       -62.84725                0               0                0               0
1.61842                0.9669259       -22.83914      0.003975127       -66.13026                0               0                0               0
1.625                  0.9659758       -23.06523      0.004110249       -69.45598                0               0                0               0
1.63158                0.9649931        -23.2951        0.0042488       -72.82173                0               0                0               0
1.63816                0.9639749       -23.52885      0.004390593       -76.22453                0               0                0               0
1.64474                0.9629182       -23.76656      0.004535445       -79.66124                0               0                0               0
1.65132                0.9618202        -24.0083       0.00468319       -83.12858                0               0                0               0
1.65789                0.9606773       -24.25413      0.004833665       -86.62318                0               0                0               0
1.66447                0.9594868       -24.50407      0.004986734       -90.14163                0               0                0               0
1.67105                0.9582452       -24.75817      0.005142275       -93.68055                0               0                0               0
1.67763                0.9569495        -25.0164      0.005300192        -97.2366                0               0                0               0
1.68421                0.9555968       -25.27879      0.005460417       -100.8065                0               0                0               0
1.69079                0.9541841        -25.5453      0.005622911       -104.3871                0               0                0               0
1.69737                0.9527088        -25.8159      0.005787669       -107.9754                0               0                0               0
1.70395                0.9511683       -26.09056      0.005954722       -111.5686                0               0                0               0
1.71053                0.9495605       -26.36923      0.006124142       -115.1639                0               0                0               0
1.71711                0.9478833       -26.65186      0.006296038        -118.759                0               0                0               0
1.72368                0.9461347        -26.9384      0.006470567       -122.3515                0               0                0               0
1.73026                0.9443134        -27.2288      0.006647932       -125.9395                0               0                0               0
1.73684                 0.942418       -27.52302      0.006828379       -129.5214                0               0                0               0
1.74342                0.9404474       -27.82102      0.007012207       -133.0957                0               0                0               0
1.75                   0.9384007       -28.12277       0.00719976       -136.6613                0               0                0               0
1.75658                0.9362772       -28.42825      0.007391433       -140.2174                0               0                0               0
1.76316                0.9340761       -28.73747      0.007587669       -143.7636                0               0                0               0
1.76974                0.9317972       -29.05044      0.007788954       -147.2999                0               0                0               0
1.77632                0.9294399        -29.3672      0.007995824       -150.8264                0               0                0               0
1.78289                0.9270036       -29.68779      0.008208849       -154.3439                0               0                0               0
1.78947                0.9244879       -30.01228      0.008428643       -157.8533                0               0                0               0
1.79605                0.9218921       -30.34078      0.008655848       -161.3559                0               0                0               0
1.80263                0.9192154       -30.67339      0.008891137       -164.8535                0               0                0               0
1.80921                0.9164566       -31.01025      0.009135201       -168.3481                0               0                0               0
1.81579                0.9136147        -31.3515      0.009388748       -171.8418                0               0                0               0
1.82237                0.9106877       -31.69732      0.009652493       -175.3372                0               0                0               0
1.82895                0.9076737       -32.04788      0.009927147       -178.8371                0               0                0               0
1.83553                0.9045703       -32.40337       0.01021342        177.6556                0               0                0               0
1.84211                0.9013747       -32.76399         0.010512        174.1379                0               0                0               0
1.84868                0.8980834       -33.12995       0.01082355        170.6067                0               0                0               0
1.85526                0.8946928       -33.50143        0.0111487        167.0588                0               0                0               0
1.86184                0.8911985       -33.87866       0.01148806        163.4912                0               0                0               0
1.86842                0.8875958       -34.26182       0.01184217        159.9008                0               0                0               0
1.875                  0.8838797       -34.65108       0.01221154        156.2846                0               0                0               0
1.88158                0.8800444       -35.04663       0.01259659        152.6401                0               0                0               0
1.88816                 0.876084       -35.44859       0.01299772        148.9645                0               0                0               0
1.89474                0.8719923        -35.8571       0.01341524        145.2556                0               0                0               0
1.90132                0.8677625       -36.27226       0.01384939        141.5114                0               0                0               0
1.90789                0.8633879       -36.69413       0.01430036        137.7299                0               0                0               0
1.91447                0.8588614       -37.12274       0.01476825        133.9096                0               0                0               0
1.92105                0.8541758       -37.55809       0.01525309        130.0493                0               0                0               0
1.92763                0.8493239       -38.00016       0.01575485        126.1479                0               0                0               0
1.93421                0.8442988       -38.44886       0.01627341        122.2048                0               0                0               0
1.94079                0.8390932       -38.90407        0.0168086        118.2193                0               0                0               0
1.94737                0.8337003       -39.36566       0.01736018        114.1913                0               0                0               0
1.95395                0.8281133        -39.8334       0.01792781        110.1208                0               0                0               0
1.96053                0.8223259       -40.30707       0.01851112        106.0078                0               0                0               0
1.96711                0.8163322       -40.78641       0.01910967        101.8528                0               0                0               0
1.97368                0.8101265       -41.27109       0.01972296        97.65635                0               0                0               0
1.98026                0.8037037       -41.76076       0.02035042        93.41899                0               0                0               0
1.98684                0.7970591       -42.25505       0.02099144        89.14157                0               0                0               0
1.99342                0.7901887       -42.75353       0.02164534        84.82498                0               0                0               0
2                      0.7830889       -43.25575       0.02231141        80.47021                0               0                0               0
2.00658                0.7757567       -43.76124       0.02298888        76.07832                0               0                0               0
2.01316                0.7681896       -44.26948       0.02367695        71.65044                0               0                0               0
2.01974                0.7603858       -44.77995       0.02437476        67.18772                0               0                0               0
2.02632                0.7523442       -45.29209       0.02508142        62.69138                0               0                0               0
2.03289                0.7440638       -45.80531       0.02579601        58.16265                0               0                0               0
2.03947                0.7355446       -46.31898       0.02651757        53.60277                0               0                0               0
2.04605                 0.726787       -46.83253       0.02724511        49.01299                0               0                0               0
2.05263                0.7177915       -47.34526       0.02797762        44.39456                0               0                0               0
2.05921                0.7085596       -47.85651       0.02871404        39.74875                0               0                0               0
2.06579                0.6990928       -48.36559       0.02945333        35.07677                0               0                0               0
2.07237                0.6893933       -48.87175       0.03019439        30.37987                0               0                0               0
2.07895                0.6794634       -49.37424       0.03093613        25.65924                0               0                0               0
2.08553                0.6693057       -49.87228       0.03167742        20.91608                0               0                0               0
2.09211                0.6589232         -50.365       0.03241716        16.15156                0               0                0               0
2.09868                 0.648319       -50.85154       0.03315419        11.36682                0               0                0               0
2.10526                0.6374965       -51.33094       0.03388738        6.562981                0               0                0               0
2.11184                0.6264594       -51.80222       0.03461558        1.741139                0               0                0               0
2.11842                0.6152115       -52.26426       0.03533767        -3.09763                0               0                0               0
2.125                  0.6037567       -52.71592       0.03605248       -7.952284                0               0                0               0
2.13158                0.5920994       -53.15591       0.03675888        -12.8218                0               0                0               0
2.13816                 0.580244       -53.58282       0.03745575       -17.70518                0               0                0               0
2.14474                0.5681952       -53.99513       0.03814196       -22.60144                0               0                0               0
2.15132                 0.555958       -54.39114       0.03881642       -27.50965                0               0                0               0
2.15789                 0.543538       -54.76894       0.03947802       -32.42887                0               0                0               0
2.16447                0.5309409       -55.12645        0.0401257       -37.35819                0               0                0               0
2.17105                0.5181731       -55.46132        0.0407584       -42.29672                0               0                0               0
2.17763                0.5052417        -55.7709       0.04137511       -47.24361                0               0                0               0
2.18421                0.4921544       -56.05225       0.04197481       -52.19799                0               0                0               0
2.19079                0.4789199       -56.30204       0.04255653       -57.15904                0               0                0               0
2.19737                0.4655476       -56.51651       0.04311935       -62.12595                0               0                0               0
2.20395                0.4520486       -56.69142       0.04366233        -67.0979                0               0                0               0
2.21053                 0.438435       -56.82197       0.04418462       -72.07413                0               0                0               0
2.21711                0.4247203       -56.90271       0.04468538       -77.05384                0               0                0               0
2.22368                0.4109203       -56.92748       0.04516381       -82.03629                0               0                0               0
2.23026                0.3970525       -56.88925       0.04561917       -87.02071                0               0                0               0
2.23684                0.3831369       -56.78005       0.04605074       -92.00637                0               0                0               0
2.24342                0.3691964       -56.59079       0.04645787       -96.99254                0               0                0               0
2.25                   0.3552567       -56.31115       0.04683994       -101.9785                0               0                0               0
2.25658                0.3413476       -55.92935       0.04719638       -106.9635                0               0                0               0
2.26316                0.3275027         -55.432       0.04752669       -111.9469                0               0                0               0
2.26974                0.3137606       -54.80391       0.04783041       -116.9278                0               0                0               0
2.27632                0.3001658       -54.02787       0.04810712       -121.9058                0               0                0               0
2.28289                0.2867687        -53.0845        0.0483565       -126.8799                0               0                0               0
2.28947                0.2736279       -51.95218       0.04857822       -131.8497                0               0                0               0