! TOUCHSTONE file generated by CST MICROWAVE STUDIO
! Date and time: Tue Mar 11 13:58:26 2025
! Project name: transverse.cst
! Parameters = {Fracture=5; B=12.5; D=160; F=25; Feed=2.85625; L=100; M=30; R=0.384908; S=1; Theta=270; length=57.125; wave=114.25}
! Header version: 2024
! Port assignment regex: !\s*Touchstone port\s*([0-9]+)\s*=\s*(CST MWS port|CST DES external port|CST DES block port)\s*(.+)\s* \(\"(.*)\"\)(\s*mode\s*([0-9]+))?.*
! Touchstone port assignment:
! Touchstone port 1 = CST MWS port 1 ("")
! Touchstone port 2 = CST MWS port 2 ("")
# GHz S MA R 50
1                      0.9975279       -9.759736     0.0005417703        165.2443                0               0                0               0
1.0066                 0.9974644       -9.845645     0.0005382047        159.1405                0               0                0               0
1.0132                 0.9974038       -9.932269     0.0005324153        153.1439                0               0                0               0
1.0198                 0.9973458       -10.01967     0.0005243633         147.263                0               0                0               0
1.0264                 0.9972895       -10.10789     0.0005140226        141.5092                0               0                0               0
1.033                  0.9972343       -10.19699     0.0005013818        135.8977                0               0                0               0
1.0396                 0.9971794         -10.287     0.0004864465        130.4485                0               0                0               0
1.0462                 0.9971239       -10.37796     0.0004692427        125.1878                0               0                0               0
1.05281                0.9970666       -10.46989     0.0004498211        120.1504                0               0                0               0
1.05941                0.9970067       -10.56282     0.0004282648        115.3828                0               0                0               0
1.06601                0.9969429       -10.65674     0.0004046986        110.9478                0               0                0               0
1.07261                0.9968745       -10.75166     0.0003793052        106.9311                0               0                0               0
1.07921                0.9968002       -10.84756     0.0003523497        103.4518                0               0                0               0
1.08581                0.9967194       -10.94444     0.0003242192        100.6767                0               0                0               0
1.09241                0.9966309       -11.04225      0.000295488        98.84051                0               0                0               0
1.09901                0.9965344       -11.14098     0.0002670229        98.26929                0               0                0               0
1.10561                0.9964289       -11.24057     0.0002401456        99.39212                0               0                0               0
1.11221                0.9963142         -11.341     0.0002168462        102.6913                0               0                0               0
1.11881                  0.99619       -11.44221     0.0001999226         108.478                0               0                0               0
1.12541                 0.996056       -11.54416     0.0001926674        116.4106                0               0                0               0
1.13201                0.9959124       -11.64681     0.0001976849        125.1235                0               0                0               0
1.13861                0.9957593       -11.75011     0.0002154747         132.777                0               0                0               0
1.14521                0.9955971       -11.85402     0.0002443954        138.1921                0               0                0               0
1.15182                0.9954262       -11.95851     0.0002819599        141.1932                0               0                0               0
1.15842                0.9952473       -12.06356     0.0003259212        142.1536                0               0                0               0
1.16502                0.9950611       -12.16913     0.0003745985        141.5563                0               0                0               0
1.17162                0.9948682       -12.27522     0.0004268054        139.8123                0               0                0               0
1.17822                0.9946697       -12.38183     0.0004816995        137.2298                0               0                0               0
1.18482                0.9944662       -12.48896       0.00053866          134.03                0               0                0               0
1.19142                0.9942588       -12.59663     0.0005972058        130.3706                0               0                0               0
1.19802                0.9940483       -12.70487     0.0006569448        126.3649                0               0                0               0
1.20462                0.9938356       -12.81371     0.0007175418        122.0952                0               0                0               0
1.21122                 0.993621       -12.92319     0.0007786981        117.6228                0               0                0               0
1.21782                0.9934057       -13.03338     0.0008401407        112.9937                0               0                0               0
1.22442                0.9931898       -13.14433     0.0009016133        108.2432                0               0                0               0
1.23102                0.9929738        -13.2561     0.0009628719        103.3988                0               0                0               0
1.23762                0.9927577       -13.36877      0.001023682        98.48256                0               0                0               0
1.24422                0.9925416       -13.48242      0.001083815        93.51215                0               0                0               0
1.25083                0.9923254       -13.59711      0.001143052        88.50217                0               0                0               0
1.25743                0.9921088       -13.71292      0.001201178        83.46482                0               0                0               0
1.26403                0.9918912       -13.82992      0.001257985        78.41051                0               0                0               0
1.27063                0.9916719       -13.94818      0.001313271        73.34828                0               0                0               0
1.27723                  0.99145       -14.06777      0.001366843        68.28614                0               0                0               0
1.28383                0.9912247       -14.18874      0.001418517        63.23129                0               0                0               0
1.29043                0.9909947       -14.31114      0.001468115        58.19036                0               0                0               0
1.29703                0.9907591       -14.43501      0.001515474        53.16956                0               0                0               0
1.30363                0.9905165       -14.56038      0.001560441         48.1748                0               0                0               0
1.31023                0.9902657       -14.68727      0.001602877        43.21182                0               0                0               0
1.31683                0.9900055       -14.81569      0.001642659        38.28625                0               0                0               0
1.32343                0.9897345       -14.94564      0.001679679        33.40373                0               0                0               0
1.33003                0.9894518       -15.07712      0.001713852        28.56993                0               0                0               0
1.33663                0.9891561        -15.2101      0.001745111        23.79066                0               0                0               0
1.34323                0.9888465       -15.34457      0.001773415        19.07186                0               0                0               0
1.34984                0.9885223       -15.48048      0.001798748        14.41969                0               0                0               0
1.35644                0.9881826       -15.61781      0.001821123        9.840518                0               0                0               0
1.36304                0.9878272       -15.75651      0.001840585        5.340966                0               0                0               0
1.36964                0.9874554       -15.89654      0.001857213          0.9279                0               0                0               0
1.37624                0.9870674       -16.03787      0.001871126       -3.391582                0               0                0               0
1.38284                0.9866631       -16.18044      0.001882483       -7.610193                0               0                0               0
1.38944                0.9862427       -16.32423      0.001891488       -11.72052                0               0                0               0
1.39604                0.9858067       -16.46921      0.001898393       -15.71513                0               0                0               0
1.40264                0.9853553       -16.61535        0.0019035       -19.58671                0               0                0               0
1.40924                0.9848897       -16.76264       0.00190717       -23.32831                0               0                0               0
1.41584                0.9844101       -16.91109      0.001909815       -26.93354                0               0                0               0
1.42244                0.9839174       -17.06068      0.001911906       -30.39693                0               0                0               0
1.42904                0.9834127       -17.21146      0.001913974       -33.71436                0               0                0               0
1.43564                0.9828968       -17.36344      0.001916601       -36.88345                0               0                0               0
1.44224                0.9823704       -17.51667      0.001920422       -39.90412                0               0                0               0
1.44884                0.9818344       -17.67122      0.001926114       -42.77905                0               0                0               0
1.45545                0.9812891       -17.82714      0.001934385       -45.51418                0               0                0               0
1.46205                0.9807354       -17.98453      0.001945962       -48.11907                0               0                0               0
1.46865                0.9801734       -18.14346      0.001961569       -50.60715                0               0                0               0
1.47525                0.9796034       -18.30403      0.001981912       -52.99559                0               0                0               0
1.48185                0.9790255       -18.46636      0.002007648        -55.3051                0               0                0               0
1.48845                 0.978439       -18.63053      0.002039372       -57.55921                0               0                0               0
1.49505                0.9778439       -18.79668      0.002077591       -59.78339                0               0                0               0
1.50165                0.9772389       -18.96489      0.002122706       -62.00394                0               0                0               0
1.50825                0.9766235       -19.13529      0.002175004       -64.24675                0               0                0               0
1.51485                0.9759964       -19.30797       0.00223465       -66.53616                0               0                0               0
1.52145                0.9753562       -19.48303      0.002301685       -68.89395                0               0                0               0
1.52805                0.9747014       -19.66056      0.002376036       -71.33858                0               0                0               0
1.53465                0.9740298       -19.84064      0.002457521       -73.88476                0               0                0               0
1.54125                  0.97334       -20.02334      0.002545868       -76.54334                0               0                0               0
1.54785                  0.97263       -20.20871      0.002640725       -79.32137                0               0                0               0
1.55446                0.9718975       -20.39679      0.002741679       -82.22246                0               0                0               0
1.56106                0.9711406       -20.58762      0.002848266       -85.24722                0               0                0               0
1.56766                0.9703575        -20.7812      0.002959989       -88.39377                0               0                0               0
1.57426                0.9695459       -20.97753      0.003076325       -91.65821                0               0                0               0
1.58086                0.9687042       -21.17662      0.003196739       -95.03514                0               0                0               0
1.58746                0.9678305       -21.37843      0.003320685       -98.51806                0               0                0               0
1.59406                0.9669236       -21.58294      0.003447622       -102.0997                0               0                0               0
1.60066                 0.965982        -21.7901      0.003577008       -105.7724                0               0                0               0
1.60726                0.9650045       -21.99987      0.003708315       -109.5282                0               0                0               0
1.61386                0.9639904       -22.21222      0.003841024       -113.3592                0               0                0               0
1.62046                0.9629392       -22.42707      0.003974634       -117.2574                0               0                0               0
1.62706                0.9618506        -22.6444      0.004108658       -121.2151                0               0                0               0
1.63366                0.9607243       -22.86417      0.004242633       -125.2247                0               0                0               0
1.64026                0.9595607       -23.08635      0.004376116        -129.279                0               0                0               0
1.64686                0.9583602       -23.31091      0.004508688       -133.3709                0               0                0               0
1.65347                0.9571233       -23.53786      0.004639958       -137.4937                0               0                0               0
1.66007                0.9558508        -23.7672      0.004769564       -141.6409                0               0                0               0
1.66667                0.9545436       -23.99896      0.004897175       -145.8063                0               0                0               0
1.67327                0.9532027       -24.23318      0.005022494       -149.9838                0               0                0               0
1.67987                0.9518288       -24.46995      0.005145262       -154.1677                0               0                0               0
1.68647                0.9504232       -24.70935      0.005265261       -158.3524                0               0                0               0
1.69307                0.9489863        -24.9515      0.005382315       -162.5326                0               0                0               0
1.69967                0.9475193       -25.19653      0.005496296       -166.7029                0               0                0               0
1.70627                0.9460223        -25.4446      0.005607125       -170.8584                0               0                0               0
1.71287                0.9444959       -25.69588       0.00571478       -174.9943                0               0                0               0
1.71947                0.9429398       -25.95057      0.005819294       -179.1059                0               0                0               0
1.72607                0.9413536       -26.20888      0.005920765        176.8112                0               0                0               0
1.73267                0.9397366       -26.47104      0.006019355        172.7614                0               0                0               0
1.73927                0.9380877       -26.73729      0.006115296        168.7487                0               0                0               0
1.74587                0.9364051       -27.00786      0.006208894        164.7768                0               0                0               0
1.75248                0.9346869       -27.28301       0.00630053        160.8493                0               0                0               0
1.75908                0.9329306       -27.56299      0.006390664        156.9691                0               0                0               0
1.76568                0.9311332       -27.84804      0.006479838         153.139                0               0                0               0
1.77228                0.9292915        -28.1384      0.006568676        149.3611                0               0                0               0
1.77888                0.9274014        -28.4343       0.00665788        145.6372                0               0                0               0
1.78548                 0.925459       -28.73596      0.006748236        141.9681                0               0                0               0
1.79208                0.9234598       -29.04358      0.006840605        138.3541                0               0                0               0
1.79868                0.9213991       -29.35735      0.006935922        134.7947                0               0                0               0
1.80528                0.9192718       -29.67743      0.007035184        131.2884                0               0                0               0
1.81188                 0.917073       -30.00396      0.007139445        127.8329                0               0                0               0
1.81848                0.9147971       -30.33708      0.007249803        124.4248                0               0                0               0
1.82508                0.9124391       -30.67688      0.007367387        121.0599                0               0                0               0
1.83168                0.9099934       -31.02343      0.007493338        117.7327                0               0                0               0
1.83828                0.9074551        -31.3768      0.007628799         114.437                0               0                0               0
1.84488                 0.904819       -31.73704      0.007774888        111.1659                0               0                0               0
1.85149                0.9020799       -32.10417      0.007932686        107.9114                0               0                0               0
1.85809                0.8992333        -32.4782      0.008103213        104.6654                0               0                0               0
1.86469                0.8962746       -32.85913      0.008287415         101.419                0               0                0               0
1.87129                0.8931995       -33.24696      0.008486146        98.16346                0               0                0               0
1.87789                 0.890004       -33.64169      0.008700154        94.88997                0               0                0               0
1.88449                0.8866845        -34.0433      0.008930068        91.58997                0               0                0               0
1.89109                0.8832373       -34.45181      0.009176393        88.25537                0               0                0               0
1.89769                0.8796593       -34.86723      0.009439503        84.87867                0               0                0               0
1.90429                0.8759475       -35.28957      0.009719646        81.45314                0               0                0               0
1.91089                 0.872099       -35.71888       0.01001693        77.97288                0               0                0               0
1.91749                0.8681109       -36.15523       0.01033135        74.43292                0               0                0               0
1.92409                0.8639805       -36.59872       0.01066277        70.82919                0               0                0               0
1.93069                 0.859705       -37.04944       0.01101094        67.15855                0               0                0               0
1.93729                0.8552816       -37.50755       0.01137552        63.41875                0               0                0               0
1.94389                0.8507071       -37.97323       0.01175605        59.60834                0               0                0               0
1.9505                 0.8459781       -38.44669         0.012152        55.72665                0               0                0               0
1.9571                 0.8410909       -38.92815       0.01256277        51.77365                0               0                0               0
1.9637                 0.8360413       -39.41788       0.01298767        47.74992                0               0                0               0
1.9703                 0.8308244       -39.91618       0.01342597        43.65651                0               0                0               0
1.9769                 0.8254353       -40.42335       0.01387688        39.49488                0               0                0               0
1.9835                 0.8198677       -40.93974       0.01433955        35.26683                0               0                0               0
1.9901                 0.8141148       -41.46569       0.01481312        30.97442                0               0                0               0
1.9967                 0.8081694       -42.00154       0.01529668        26.61989                0               0                0               0
2.0033                 0.8020233       -42.54765       0.01578927        22.20564                0               0                0               0
2.0099                 0.7956674       -43.10437       0.01628996        17.73414                0               0                0               0
2.0165                 0.7890919       -43.67202       0.01679775        13.20792                0               0                0               0
2.0231                 0.7822863       -44.25092       0.01731164        8.629544                0               0                0               0
2.0297                 0.7752393       -44.84135       0.01783062        4.001533                0               0                0               0
2.0363                 0.7679391       -45.44353       0.01835368      -0.6735996                0               0                0               0
2.0429                 0.7603732       -46.05763       0.01887979       -5.393398                0               0                0               0
2.0495                 0.7525286       -46.68378       0.01940791       -10.15546                0               0                0               0
2.05611                0.7443921       -47.32203         0.019937       -14.95747                0               0                0               0
2.06271                0.7359502       -47.97233       0.02046603       -19.79718                0               0                0               0
2.06931                0.7271894       -48.63456       0.02099397        -24.6724                0               0                0               0
2.07591                0.7180961       -49.30849       0.02151978       -29.58108                0               0                0               0
2.08251                0.7086568       -49.99376       0.02204243        -34.5212                0               0                0               0
2.08911                0.6988588       -50.68993       0.02256092       -39.49086                0               0                0               0
2.09571                0.6886897       -51.39638       0.02307423       -44.48822                0               0                0               0
2.10231                0.6781379       -52.11237       0.02358137       -49.51154                0               0                0               0
2.10891                0.6671927       -52.83701       0.02408134       -54.55914                0               0                0               0
2.11551                0.6558446       -53.56923        0.0245732       -59.62943                0               0                0               0
2.12211                0.6440853       -54.30778       0.02505596       -64.72087                0               0                0               0
2.12871                0.6319079       -55.05121       0.02552872       -69.83203                0               0                0               0
2.13531                 0.619307       -55.79788       0.02599054       -74.96149                0               0                0               0
2.14191                0.6062793       -56.54588       0.02644055       -80.10794                0               0                0               0
2.14851                 0.592823       -57.29308       0.02687787       -85.27009                0               0                0               0
2.15512                0.5789387       -58.03705       0.02730166       -90.44673                0               0                0               0
2.16172                0.5646288       -58.77503       0.02771109       -95.63668                0               0                0               0
2.16832                0.5498984       -59.50394       0.02810539       -100.8388                0               0                0               0
2.17492                0.5347545       -60.22028        0.0284838       -106.0521                0               0                0               0
2.18152                 0.519207       -60.92007       0.02884559       -111.2754                0               0                0               0
2.18812                0.5032683       -61.59885       0.02919006       -116.5077                0               0                0               0
2.19472                0.4869536        -62.2515       0.02951655       -121.7482                0               0                0               0
2.20132                0.4702805       -62.87221       0.02982445       -126.9958                0               0                0               0
2.20792                0.4532702       -63.45432       0.03011316       -132.2496                0               0                0               0
2.21452                0.4359464       -63.99013       0.03038215       -137.5088                0               0                0               0
2.22112                0.4183365       -64.47072       0.03063089       -142.7724                0               0                0               0
2.22772                0.4004713       -64.88573       0.03085892       -148.0397                0               0                0               0
2.23432                0.3823852       -65.22295       0.03106582       -153.3098                0               0                0               0
2.24092                0.3641171       -65.46798        0.0312512       -158.5818                0               0                0               0
2.24752                0.3457107       -65.60364       0.03141472       -163.8551                0               0                0               0
2.25413                0.3272152       -65.60933       0.03155609       -169.1288                0               0                0               0
2.26073                0.3086863       -65.46014       0.03167504       -174.4021                0               0                0               0
2.26733                 0.290188       -65.12572       0.03177139       -179.6742                0               0                0               0
2.27393                 0.271794       -64.56891       0.03184496        175.0556                0               0                0               0
2.28053                0.2535911       -63.74387       0.03189565         169.788                0               0                0               0
2.28713                0.2356824       -62.59397       0.03192337         164.524                0               0                0               0
2.29373                0.2181929       -61.04931       0.03192813        159.2641                0               0                0               0