! TOUCHSTONE file generated by CST MICROWAVE STUDIO
! Date and time: Tue Mar 11 13:57:17 2025
! Project name: transverse.cst
! Parameters = {Fracture=5; B=10; D=160; F=15; Feed=2.85625; L=100; M=20; R=0.384908; S=2; Theta=180; length=57.125; wave=114.25}
! Header version: 2024
! Port assignment regex: !\s*Touchstone port\s*([0-9]+)\s*=\s*(CST MWS port|CST DES external port|CST DES block port)\s*(.+)\s* \(\"(.*)\"\)(\s*mode\s*([0-9]+))?.*
! Touchstone port assignment:
! Touchstone port 1 = CST MWS port 1 ("")
! Touchstone port 2 = CST MWS port 2 ("")
# GHz S MA R 50
1                      0.9977172        -9.74309     0.0004214088       -169.4886                0               0                0               0
1.0066                 0.9976329        -9.83054     0.0004211943       -173.9797                0               0                0               0
1.0132                 0.9975459       -9.918478     0.0004197062       -178.3105                0               0                0               0
1.0198                 0.9974567       -10.00691     0.0004169928        177.5367                0               0                0               0
1.0264                 0.9973653       -10.09584     0.0004131248        173.5822                0               0                0               0
1.033                   0.997272       -10.18529     0.0004081995        169.8492                0               0                0               0
1.0396                  0.997177       -10.27526     0.0004023445        166.3638                0               0                0               0
1.0462                 0.9970805       -10.36579     0.0003957236        163.1546                0               0                0               0
1.05281                0.9969827       -10.45687     0.0003885421        160.2528                0               0                0               0
1.05941                0.9968835       -10.54854     0.0003810526        157.6903                0               0                0               0
1.06601                0.9967832       -10.64083      0.000373561        155.4985                0               0                0               0
1.07261                0.9966819       -10.73375     0.0003664303        153.7046                0               0                0               0
1.07921                0.9965794       -10.82733     0.0003600811        152.3272                0               0                0               0
1.08581                0.9964756        -10.9216      0.000354987        151.3703                0               0                0               0
1.09241                0.9963707       -11.01659     0.0003516606        150.8164                0               0                0               0
1.09901                0.9962642       -11.11232     0.0003506284        150.6206                0               0                0               0
1.10561                0.9961562       -11.20883      0.000352396        150.7075                0               0                0               0
1.11221                0.9960461       -11.30612     0.0003574059        150.9737                0               0                0               0
1.11881                0.9959337       -11.40424      0.000365996        151.2969                0               0                0               0
1.12541                0.9958189        -11.5032     0.0003783707        151.5505                0               0                0               0
1.13201                 0.995701       -11.60302     0.0003945901        151.6188                0               0                0               0
1.13861                0.9955798       -11.70371     0.0004145799          151.41                0               0                0               0
1.14521                0.9954549        -11.8053     0.0004381567        150.8619                0               0                0               0
1.15182                0.9953258       -11.90778     0.0004650604        149.9426                0               0                0               0
1.15842                 0.995192       -12.01117     0.0004949853        148.6449                0               0                0               0
1.16502                0.9950534       -12.11547     0.0005276053        146.9807                0               0                0               0
1.17162                0.9949093       -12.22069     0.0005625921        144.9737                0               0                0               0
1.17822                0.9947596       -12.32683     0.0005996262        142.6541                0               0                0               0
1.18482                0.9946039       -12.43388     0.0006384025        140.0551                0               0                0               0
1.19142                0.9944419       -12.54184     0.0006786334        137.2094                0               0                0               0
1.19802                0.9942734       -12.65071     0.0007200478        134.1488                0               0                0               0
1.20462                0.9940983       -12.76049     0.0007623915        130.9021                0               0                0               0
1.21122                0.9939164       -12.87115     0.0008054253        127.4959                0               0                0               0
1.21782                0.9937276       -12.98272     0.0008489234        123.9539                0               0                0               0
1.22442                0.9935321       -13.09517     0.0008926725        120.2973                0               0                0               0
1.23102                0.9933296       -13.20851     0.0009364709        116.5451                0               0                0               0
1.23762                0.9931205       -13.32274     0.0009801277         112.714                0               0                0               0
1.24422                0.9929047       -13.43785      0.001023462        108.8192                0               0                0               0
1.25083                0.9926826       -13.55386      0.001066304        104.8742                0               0                0               0
1.25743                 0.992454       -13.67078      0.001108495        100.8913                0               0                0               0
1.26403                0.9922193       -13.78861      0.001149884        96.88157                0               0                0               0
1.27063                0.9919787       -13.90737      0.001190336        92.85534                0               0                0               0
1.27723                0.9917324       -14.02708      0.001229726        88.82207                0               0                0               0
1.28383                0.9914806       -14.14777      0.001267941        84.79059                0               0                0               0
1.29043                0.9912233       -14.26945      0.001304887        80.76924                0               0                0               0
1.29703                0.9909607       -14.39216      0.001340482        76.76592                0               0                0               0
1.30363                 0.990693       -14.51592      0.001374662        72.78819                0               0                0               0
1.31023                0.9904201       -14.64078      0.001407385         68.8433                0               0                0               0
1.31683                0.9901419       -14.76677      0.001438627        64.93828                0               0                0               0
1.32343                0.9898585       -14.89393      0.001468387        61.07991                0               0                0               0
1.33003                0.9895697        -15.0223       0.00149669         57.2748                0               0                0               0
1.33663                0.9892754       -15.15191      0.001523587        53.52932                0               0                0               0
1.34323                0.9889752       -15.28281      0.001549157        49.84959                0               0                0               0
1.34984                0.9886689       -15.41504      0.001573511        46.24146                0               0                0               0
1.35644                0.9883561       -15.54863      0.001596792         42.7104                0               0                0               0
1.36304                0.9880364       -15.68362      0.001619176        39.26144                0               0                0               0
1.36964                0.9877094       -15.82005      0.001640875        35.89902                0               0                0               0
1.37624                0.9873745       -15.95796      0.001662139        32.62688                0               0                0               0
1.38284                0.9870314       -16.09736      0.001683251        29.44786                0               0                0               0
1.38944                0.9866794       -16.23829      0.001704532        26.36374                0               0                0               0
1.39604                 0.986318       -16.38077      0.001726337        23.37503                0               0                0               0
1.40264                0.9859468       -16.52484      0.001749052        20.48079                0               0                0               0
1.40924                0.9855653        -16.6705      0.001773092        17.67843                0               0                0               0
1.41584                0.9851728       -16.81778      0.001798893         14.9636                0               0                0               0
1.42244                0.9847691        -16.9667      0.001826905        12.33007                0               0                0               0
1.42904                0.9843537       -17.11727      0.001857587        9.769708                0               0                0               0
1.43564                0.9839264        -17.2695      0.001891396        7.272578                0               0                0               0
1.44224                0.9834867       -17.42343      0.001928775        4.827087                0               0                0               0
1.44884                0.9830343       -17.57906      0.001970148        2.420268                0               0                0               0
1.45545                0.9825693       -17.73641      0.002015904      0.03815473                0               0                0               0
1.46205                0.9820912        -17.8955       0.00206639       -2.333789                0               0                0               0
1.46865                0.9816001       -18.05635      0.002121907       -4.710178                0               0                0               0
1.47525                0.9810959       -18.21901      0.002182697       -7.105219                0               0                0               0
1.48185                0.9805785       -18.38349      0.002248946       -9.532261                0               0                0               0
1.48845                 0.980048       -18.54984      0.002320776       -12.00339                0               0                0               0
1.49505                 0.979504        -18.7181      0.002398252       -14.52915                0               0                0               0
1.50165                0.9789471       -18.88831      0.002481379       -17.11832                0               0                0               0
1.50825                0.9783767       -19.06053      0.002570107       -19.77781                0               0                0               0
1.51485                0.9777931       -19.23481       0.00266434       -22.51269                0               0                0               0
1.52145                0.9771959       -19.41124      0.002763934       -25.32625                0               0                0               0
1.52805                0.9765851       -19.58987       0.00286871       -28.22013                0               0                0               0
1.53465                0.9759604       -19.77078      0.002978458        -31.1945                0               0                0               0
1.54125                0.9753214       -19.95406      0.003092941       -34.24826                0               0                0               0
1.54785                0.9746677        -20.1398      0.003211901       -37.37928                0               0                0               0
1.55446                0.9739987       -20.32808      0.003335069       -40.58452                0               0                0               0
1.56106                0.9733137         -20.519      0.003462162       -43.86029                0               0                0               0
1.56766                0.9726119       -20.71265      0.003592895        -47.2024                0               0                0               0
1.57426                0.9718923       -20.90914      0.003726978       -50.60626                0               0                0               0
1.58086                0.9711538       -21.10856      0.003864126       -54.06707                0               0                0               0
1.58746                0.9703954       -21.31101      0.004004057       -57.57987                0               0                0               0
1.59406                0.9696153        -21.5166        0.0041465       -61.13964                0               0                0               0
1.60066                0.9688124        -21.7254      0.004291193       -64.74139                0               0                0               0
1.60726                0.9679849       -21.93753       0.00443789       -68.38016                0               0                0               0
1.61386                0.9671311       -22.15306      0.004586362       -72.05111                0               0                0               0
1.62046                0.9662491       -22.37208      0.004736399       -75.74953                0               0                0               0
1.62706                0.9653372       -22.59467      0.004887814       -79.47087                0               0                0               0
1.63366                0.9643932       -22.82091      0.005040444       -83.21075                0               0                0               0
1.64026                0.9634152       -23.05086      0.005194157       -86.96498                0               0                0               0
1.64686                0.9624011       -23.28459      0.005348845       -90.72957                0               0                0               0
1.65347                0.9613488       -23.52216      0.005504439       -94.50074                0               0                0               0
1.66007                0.9602561       -23.76362      0.005660901       -98.27493                0               0                0               0
1.66667                0.9591211       -24.00902      0.005818233       -102.0488                0               0                0               0
1.67327                0.9579416       -24.25841      0.005976476       -105.8193                0               0                0               0
1.67987                0.9567155       -24.51182      0.006135714       -109.5835                0               0                0               0
1.68647                0.9554408        -24.7693      0.006296073        -113.339                0               0                0               0
1.69307                0.9541158        -25.0309      0.006457729       -117.0833                0               0                0               0
1.69967                0.9527383       -25.29663      0.006620898       -120.8145                0               0                0               0
1.70627                0.9513065       -25.56654      0.006785851       -124.5309                0               0                0               0
1.71287                0.9498188       -25.84068      0.006952907       -128.2311                0               0                0               0
1.71947                 0.948273       -26.11908       0.00712243       -131.9141                0               0                0               0
1.72607                0.9466678        -26.4018      0.007294834       -135.5791                0               0                0               0
1.73267                0.9450013       -26.68888      0.007470583       -139.2258                0               0                0               0
1.73927                0.9432718       -26.98039      0.007650182       -142.8543                0               0                0               0
1.74587                0.9414777       -27.27639      0.007834181        -146.465                0               0                0               0
1.75248                0.9396172       -27.57695      0.008023168       -150.0587                0               0                0               0
1.75908                0.9376886       -27.88215      0.008217766       -153.6367                0               0                0               0
1.76568                  0.93569       -28.19208      0.008418627       -157.2004                0               0                0               0
1.77228                0.9336194       -28.50685      0.008626427       -160.7519                0               0                0               0
1.77888                0.9314749       -28.82655      0.008841862       -164.2934                0               0                0               0
1.78548                0.9292541       -29.15131      0.009065635       -167.8275                0               0                0               0
1.79208                0.9269548       -29.48125      0.009298452       -171.3572                0               0                0               0
1.79868                0.9245744        -29.8165      0.009541016       -174.8855                0               0                0               0
1.80528                0.9221102       -30.15719      0.009794016       -178.4157                0               0                0               0
1.81188                0.9195591       -30.50348       0.01005812        178.0486                0               0                0               0
1.81848                0.9169179       -30.85551       0.01033396        174.5041                0               0                0               0
1.82508                0.9141829       -31.21344       0.01062215         170.947                0               0                0               0
1.83168                0.9113505        -31.5774       0.01092323        167.3739                0               0                0               0
1.83828                0.9084167       -31.94756       0.01123773        163.7814                0               0                0               0
1.84488                0.9053771       -32.32407       0.01156608        160.1661                0               0                0               0
1.85149                0.9022269       -32.70706       0.01190869        156.5248                0               0                0               0
1.85809                0.8989614        -33.0967       0.01226588        152.8548                0               0                0               0
1.86469                0.8955752       -33.49309        0.0126379        149.1533                0               0                0               0
1.87129                 0.892063       -33.89638       0.01302496        145.4179                0               0                0               0
1.87789                 0.888419       -34.30666       0.01342717        141.6466                0               0                0               0
1.88449                0.8846372       -34.72404       0.01384458        137.8375                0               0                0               0
1.89109                0.8807117        -35.1486       0.01427717        133.9892                0               0                0               0
1.89769                0.8766359       -35.58041       0.01472484        130.1006                0               0                0               0
1.90429                0.8724036       -36.01951       0.01518744        126.1707                0               0                0               0
1.91089                0.8680081       -36.46592       0.01566474        122.1989                0               0                0               0
1.91749                0.8634426       -36.91966       0.01615645        118.1849                0               0                0               0
1.92409                0.8587003       -37.38071       0.01666222        114.1286                0               0                0               0
1.93069                0.8537746       -37.84903       0.01718163        110.0301                0               0                0               0
1.93729                0.8486586       -38.32454       0.01771421        105.8898                0               0                0               0
1.94389                0.8433455       -38.80717       0.01825945        101.7082                0               0                0               0
1.9505                 0.8378287       -39.29679       0.01881677        97.48589                0               0                0               0
1.9571                 0.8321015       -39.79324       0.01938556        93.22373                0               0                0               0
1.9637                 0.8261576       -40.29636       0.01996514        88.92263                0               0                0               0
1.9703                 0.8199906       -40.80594       0.02055482         84.5836                0               0                0               0
1.9769                 0.8135944       -41.32175       0.02115385        80.20774                0               0                0               0
1.9835                 0.8069632        -41.8435       0.02176145         75.7962                0               0                0               0
1.9901                 0.8000913       -42.37091       0.02237681         71.3502                0               0                0               0
1.9967                 0.7929735       -42.90363       0.02299908        66.87098                0               0                0               0
2.0033                 0.7856046        -43.4413       0.02362741        62.35979                0               0                0               0
2.0099                   0.77798       -43.98349        0.0242609        57.81794                0               0                0               0
2.0165                 0.7700952       -44.52977       0.02489862        53.24671                0               0                0               0
2.0231                 0.7619464       -45.07965       0.02553965        48.64739                0               0                0               0
2.0297                 0.7535299       -45.63257       0.02618303        44.02126                0               0                0               0
2.0363                 0.7448426       -46.18797        0.0268278        39.36959                0               0                0               0
2.0429                 0.7358818        -46.7452       0.02747298        34.69365                0               0                0               0
2.0495                 0.7266452       -47.30358       0.02811757        29.99467                0               0                0               0
2.05611                0.7171311       -47.86235       0.02876059        25.27386                0               0                0               0
2.06271                0.7073383        -48.4207       0.02940103        20.53243                0               0                0               0
2.06931                0.6972663       -48.97776        0.0300379        15.77154                0               0                0               0
2.07591                0.6869148       -49.53254       0.03067017        10.99234                0               0                0               0
2.08251                0.6762844         -50.084       0.03129687        6.195943                0               0                0               0
2.08911                0.6653764         -50.631       0.03191698         1.38344                0               0                0               0
2.09571                0.6541927       -51.17229       0.03252953       -3.444103                0               0                0               0
2.10231                 0.642736       -51.70651       0.03313352       -8.285648                0               0                0               0
2.10891                0.6310094       -52.23218         0.033728       -13.14018                0               0                0               0
2.11551                0.6190175       -52.74768         0.034312       -18.00671                0               0                0               0
2.12211                0.6067652        -53.2512        0.0348846       -22.88427                0               0                0               0
2.12871                0.5942585       -53.74082       0.03544486       -27.77191                0               0                0               0
2.13531                0.5815046       -54.21437        0.0359919       -32.66873                0               0                0               0
2.14191                0.5685114       -54.66949       0.03652482       -37.57381                0               0                0               0
2.14851                 0.555288       -55.10357       0.03704278       -42.48628                0               0                0               0
2.15512                0.5418449       -55.51374       0.03754496       -47.40528                0               0                0               0
2.16172                0.5281937       -55.89682       0.03803054       -52.32996                0               0                0               0
2.16832                0.5143474       -56.24929       0.03849879       -57.25949                0               0                0               0
2.17492                0.5003202       -56.56724       0.03894894       -62.19306                0               0                0               0
2.18152                0.4861283       -56.84633        0.0393803       -67.12987                0               0                0               0
2.18812                0.4717894       -57.08173       0.03979222       -72.06913                0               0                0               0
2.19472                0.4573227       -57.26807       0.04018407       -77.01007                0               0                0               0
2.20132                0.4427499       -57.39931       0.04055526       -81.95193                0               0                0               0
2.20792                0.4280944       -57.46874       0.04090525       -86.89395                0               0                0               0
2.21452                0.4133823       -57.46884       0.04123353       -91.83537                0               0                0               0
2.22112                0.3986421       -57.39116       0.04153965       -96.77547                0               0                0               0
2.22772                0.3839053       -57.22625        0.0418232       -101.7135                0               0                0               0
2.23432                0.3692065       -56.96351       0.04208382       -106.6488                0               0                0               0
2.24092                 0.354584       -56.59103       0.04232117       -111.5805                0               0                0               0
2.24752                0.3400802       -56.09555       0.04253501        -116.508                0               0                0               0
2.25413                0.3257422       -55.46224        0.0427251       -121.4305                0               0                0               0
2.26073                 0.311622       -54.67466       0.04289128       -126.3474                0               0                0               0
2.26733                0.2977778       -53.71472       0.04303343       -131.2579                0               0                0               0
2.27393                0.2842742       -52.56277        0.0431515       -136.1613                0               0                0               0
2.28053                0.2711834       -51.19773       0.04324545       -141.0569                0               0                0               0
2.28713                0.2585854       -49.59766       0.04331534        -145.944                0               0                0               0
2.29373                0.2465689       -47.74042       0.04336124       -150.8219                0               0                0               0