! TOUCHSTONE file generated by CST MICROWAVE STUDIO
! Date and time: Tue Mar 11 13:56:01 2025
! Project name: transverse.cst
! Parameters = {Fracture=5; B=12.5; D=160; F=5; Feed=2.85625; L=100; M=10; R=0.384908; S=1; Theta=0; length=57.125; wave=114.25}
! Header version: 2024
! Port assignment regex: !\s*Touchstone port\s*([0-9]+)\s*=\s*(CST MWS port|CST DES external port|CST DES block port)\s*(.+)\s* \(\"(.*)\"\)(\s*mode\s*([0-9]+))?.*
! Touchstone port assignment:
! Touchstone port 1 = CST MWS port 1 ("")
! Touchstone port 2 = CST MWS port 2 ("")
# GHz S MA R 50
1                      0.9978873       -9.732259     0.0002764963       -120.3149                0               0                0               0
1.00658                0.9978027       -9.820794     0.0002995315       -125.1238                0               0                0               0
1.01316                 0.997711       -9.909737     0.0003218692       -130.0231                0               0                0               0
1.01974                0.9976124       -9.999042     0.0003433791        -134.984                0               0                0               0
1.02632                0.9975079       -10.08867     0.0003639349       -139.9845                0               0                0               0
1.03289                 0.997398        -10.1786     0.0003834148       -145.0069                0               0                0               0
1.03947                0.9972836        -10.2688     0.0004017011       -150.0367                0               0                0               0
1.04605                 0.997166       -10.35926     0.0004186808       -155.0616                0               0                0               0
1.05263                0.9970459       -10.44999     0.0004342462       -160.0704                0               0                0               0
1.05921                0.9969246       -10.54099     0.0004482953       -165.0529                0               0                0               0
1.06579                 0.996803       -10.63229     0.0004607328       -169.9993                0               0                0               0
1.07237                0.9966822       -10.72391     0.0004714713       -174.8999                0               0                0               0
1.07895                0.9965631        -10.8159     0.0004804318       -179.7446                0               0                0               0
1.08553                0.9964466       -10.90832     0.0004875453        175.4771                0               0                0               0
1.09211                0.9963333       -11.00122     0.0004927541        170.7768                0               0                0               0
1.09868                0.9962238       -11.09467     0.0004960134        166.1672                0               0                0               0
1.10526                0.9961186       -11.18875     0.0004972932        161.6626                0               0                0               0
1.11184                0.9960176       -11.28353     0.0004965806        157.2795                0               0                0               0
1.11842                0.9959212        -11.3791      0.000493883        153.0367                0               0                0               0
1.125                  0.9958289       -11.47554     0.0004892306        148.9564                0               0                0               0
1.13158                0.9957404       -11.57293      0.000482682        145.0646                0               0                0               0
1.13816                0.9956552       -11.67134     0.0004743287        141.3918                0               0                0               0
1.14474                0.9955723       -11.77086     0.0004643026        137.9742                0               0                0               0
1.15132                 0.995491       -11.87155     0.0004527848        134.8544                0               0                0               0
1.15789                  0.99541       -11.97346     0.0004400166        132.0822                0               0                0               0
1.16447                 0.995328       -12.07664     0.0004263136         129.715                0               0                0               0
1.17105                 0.995244       -12.18114     0.0004120826        127.8169                0               0                0               0
1.17763                0.9951565       -12.28697     0.0003978395        126.4561                0               0                0               0
1.18421                 0.995064       -12.39416     0.0003842274        125.6991                0               0                0               0
1.19079                0.9949652       -12.50271     0.0003720272        125.5987                0               0                0               0
1.19737                0.9948587       -12.61261     0.0003621528        126.1774                0               0                0               0
1.20395                0.9947432       -12.72384     0.0003556139        127.4041                0               0                0               0
1.21053                0.9946177       -12.83637     0.0003534373        129.1743                0               0                0               0
1.21711                0.9944808       -12.95017     0.0003565465        131.3025                0               0                0               0
1.22368                0.9943319       -13.06518     0.0003656267        133.5412                0               0                0               0
1.23026                0.9941703       -13.18136      0.000381024        135.6252                0               0                0               0
1.23684                0.9939954       -13.29866     0.0004027217        137.3244                0               0                0               0
1.24342                0.9938069       -13.41701     0.0004303969          138.48                0               0                0               0
1.25                   0.9936047       -13.53635     0.0004635249        139.0144                0               0                0               0
1.25658                0.9933891       -13.65663     0.0005014849        138.9176                0               0                0               0
1.26316                  0.99316        -13.7778       0.00054364         138.225                0               0                0               0
1.26974                0.9929182       -13.89981     0.0005893857        136.9963                0               0                0               0
1.27632                0.9926645       -14.02262     0.0006381701           135.3                0               0                0               0
1.28289                0.9923995       -14.14621     0.0006894994        133.2041                0               0                0               0
1.28947                0.9921243       -14.27054     0.0007429356        130.7713                0               0                0               0
1.29605                0.9918397       -14.39563     0.0007980881        128.0572                0               0                0               0
1.30263                0.9915471       -14.52146     0.0008546079        125.1099                0               0                0               0
1.30921                0.9912476       -14.64807     0.0009121808        121.9707                0               0                0               0
1.31579                 0.990942       -14.77548     0.0009705215        118.6747                0               0                0               0
1.32237                0.9906315       -14.90374      0.001029371        115.2517                0               0                0               0
1.32895                0.9903171        -15.0329      0.001088492        111.7273                0               0                0               0
1.33553                0.9899997       -15.16305      0.001147669        108.1234                0               0                0               0
1.34211                0.9896798       -15.29425      0.001206706         104.459                0               0                0               0
1.34868                0.9893579       -15.42659      0.001265427        100.7505                0               0                0               0
1.35526                0.9890343       -15.56018      0.001323676        97.01244                0               0                0               0
1.36184                 0.988709       -15.69511      0.001381318        93.25761                0               0                0               0
1.36842                0.9883819       -15.83149      0.001438239        89.49744                0               0                0               0
1.375                  0.9880524       -15.96942      0.001494348        85.74217                0               0                0               0
1.38158                  0.98772       -16.10901      0.001549581        82.00107                0               0                0               0
1.38816                0.9873837       -16.25036      0.001603898        78.28257                0               0                0               0
1.39474                0.9870422       -16.39355      0.001657289        74.59431                0               0                0               0
1.40132                0.9866943       -16.53869      0.001709776        70.94327                0               0                0               0
1.40789                0.9863385       -16.68583       0.00176141        67.33574                0               0                0               0
1.41447                 0.985973       -16.83506      0.001812281        63.77739                0               0                0               0
1.42105                0.9855961       -16.98641      0.001862511         60.2732                0               0                0               0
1.42763                 0.985206       -17.13994      0.001912263        56.82747                0               0                0               0
1.43421                0.9848009       -17.29566      0.001961738        53.44378                0               0                0               0
1.44079                0.9843786        -17.4536      0.002011175        50.12486                0               0                0               0
1.44737                0.9839376       -17.61374      0.002060854        46.87258                0               0                0               0
1.45395                 0.983476       -17.77607      0.002111094        43.68783                0               0                0               0
1.46053                0.9829922       -17.94057      0.002162249        40.57047                0               0                0               0
1.46711                0.9824846       -18.10719      0.002214709        37.51921                0               0                0               0
1.47368                0.9819524        -18.2759      0.002268893        34.53161                0               0                0               0
1.48026                0.9813941       -18.44664      0.002325248        31.60401                0               0                0               0
1.48684                0.9808091       -18.61936      0.002384236        28.73155                0               0                0               0
1.49342                0.9801967       -18.79398      0.002446336        25.90821                0               0                0               0
1.5                    0.9795567       -18.97047       0.00251203        23.12688                0               0                0               0
1.50658                0.9788891       -19.14875      0.002581795        20.37954                0               0                0               0
1.51316                0.9781938       -19.32879      0.002656096         17.6574                0               0                0               0
1.51974                0.9774714       -19.51054      0.002735379        14.95114                0               0                0               0
1.52632                0.9767227       -19.69396      0.002820057        12.25118                0               0                0               0
1.53289                 0.975948       -19.87905      0.002910509        9.547882                0               0                0               0
1.53947                0.9751486       -20.06579       0.00300707        6.831878                0               0                0               0
1.54605                0.9743253       -20.25421      0.003110028         4.09427                0               0                0               0
1.55263                0.9734791       -20.44432      0.003219619        1.326867                0               0                0               0
1.55921                0.9726113       -20.63617      0.003336027       -1.477649                0               0                0               0
1.56579                0.9717227       -20.82984      0.003459381       -4.325595                0               0                0               0
1.57237                0.9708141        -21.0254      0.003589762       -7.222202                0               0                0               0
1.57895                0.9698866       -21.22295      0.003727195        -10.1716                0               0                0               0
1.58553                0.9689405       -21.42261      0.003871663       -13.17681                0               0                0               0
1.59211                0.9679763       -21.62451      0.004023104       -16.23979                0               0                0               0
1.59868                0.9669939        -21.8288      0.004181419       -19.36155                0               0                0               0
1.60526                0.9659933       -22.03562      0.004346471       -22.54219                0               0                0               0
1.61184                0.9649738       -22.24513        0.0045181       -25.78103                0               0                0               0
1.61842                0.9639346       -22.45752      0.004696117       -29.07673                0               0                0               0
1.625                  0.9628744       -22.67293      0.004880315       -32.42738                0               0                0               0
1.63158                0.9617916       -22.89155      0.005070472       -35.83061                0               0                0               0
1.63816                0.9606843       -23.11353      0.005266357        -39.2837                0               0                0               0
1.64474                0.9595502       -23.33904      0.005467732       -42.78363                0               0                0               0
1.65132                0.9583868       -23.56821      0.005674356       -46.32722                0               0                0               0
1.65789                0.9571911       -23.80117      0.005885993       -49.91113                0               0                0               0
1.66447                0.9559601       -24.03806       0.00610241       -53.53195                0               0                0               0
1.67105                0.9546905       -24.27897      0.006323387       -57.18627                0               0                0               0
1.67763                 0.953379       -24.52399      0.006548713       -60.87068                0               0                0               0
1.68421                0.9520219       -24.77317      0.006778198       -64.58182                0               0                0               0
1.69079                0.9506157       -25.02657      0.007011667       -68.31644                0               0                0               0
1.69737                 0.949157       -25.28421      0.007248973       -72.07134                0               0                0               0
1.70395                0.9476421        -25.5461      0.007489991       -75.84352                0               0                0               0
1.71053                0.9460679       -25.81222      0.007734629       -79.63006                0               0                0               0
1.71711                0.9444309       -26.08255      0.007982824       -83.42823                0               0                0               0
1.72368                0.9427285       -26.35705      0.008234548       -87.23545                0               0                0               0
1.73026                0.9409579       -26.63565       0.00848981       -91.04934                0               0                0               0
1.73684                0.9391166        -26.9183       0.00874866       -94.86769                0               0                0               0
1.74342                0.9372026       -27.20493      0.009011187       -98.68849                0               0                0               0
1.75                   0.9352141       -27.49547      0.009277525       -102.5099                0               0                0               0
1.75658                0.9331496       -27.78985       0.00954785       -106.3305                0               0                0               0
1.76316                0.9310079       -28.08801      0.009822381       -110.1487                0               0                0               0
1.76974                0.9287882       -28.38988       0.01010139       -113.9635                0               0                0               0
1.77632                0.9264899       -28.69543       0.01038519       -117.7739                0               0                0               0
1.78289                0.9241126       -29.00463       0.01067413       -121.5793                0               0                0               0
1.78947                0.9216562       -29.31748       0.01096862       -125.3792                0               0                0               0
1.79605                0.9191206       -29.63397       0.01126911       -129.1734                0               0                0               0
1.80263                 0.916506       -29.95417       0.01157608       -132.9619                0               0                0               0
1.80921                0.9138122       -30.27812       0.01189005       -136.7451                0               0                0               0
1.81579                0.9110394       -30.60592       0.01221157       -140.5234                0               0                0               0
1.82237                0.9081874       -30.93769       0.01254124       -144.2976                0               0                0               0
1.82895                0.9052558       -31.27357       0.01287966       -148.0685                0               0                0               0
1.83553                 0.902244       -31.61373       0.01322746       -151.8374                0               0                0               0
1.84211                 0.899151       -31.95838       0.01358528       -155.6054                0               0                0               0
1.84868                0.8959755       -32.30773       0.01395377       -159.3743                0               0                0               0
1.85526                0.8927155       -32.66204       0.01433359       -163.1454                0               0                0               0
1.86184                0.8893688       -33.02153       0.01472538       -166.9207                0               0                0               0
1.86842                0.8859322       -33.38651       0.01512976       -170.7019                0               0                0               0
1.875                  0.8824023       -33.75724       0.01554735       -174.4911                0               0                0               0
1.88158                 0.878775         -34.134       0.01597873       -178.2901                0               0                0               0
1.88816                0.8750454       -34.51708       0.01642445        177.8991                0               0                0               0
1.89474                 0.871208       -34.90674       0.01688502        174.0744                0               0                0               0
1.90132                0.8672571       -35.30324       0.01736089         170.234                0               0                0               0
1.90789                0.8631858       -35.70683       0.01785248        166.3758                0               0                0               0
1.91447                 0.858987       -36.11773       0.01836014        162.4982                0               0                0               0
1.92105                0.8546533       -36.53611       0.01888414        158.5994                0               0                0               0
1.92763                0.8501765       -36.96214       0.01942473        154.6778                0               0                0               0
1.93421                0.8455483       -37.39592       0.01998205        150.7319                0               0                0               0
1.94079                0.8407601       -37.83753       0.02055617        146.7605                0               0                0               0
1.94737                0.8358032       -38.28699       0.02114711        142.7622                0               0                0               0
1.95395                0.8306685       -38.74428       0.02175479        138.7362                0               0                0               0
1.96053                0.8253473       -39.20931       0.02237908        134.6816                0               0                0               0
1.96711                 0.819831       -39.68196       0.02301976        130.5977                0               0                0               0
1.97368                0.8141108       -40.16205       0.02367652        126.4838                0               0                0               0
1.98026                0.8081789       -40.64933         0.024349        122.3397                0               0                0               0
1.98684                 0.802027        -41.1435       0.02503675         118.165                0               0                0               0
1.99342                0.7956482       -41.64422       0.02573927        113.9596                0               0                0               0
2                      0.7890356       -42.15109       0.02645596        109.7237                0               0                0               0
2.00658                 0.782183       -42.66365       0.02718617        105.4572                0               0                0               0
2.01316                0.7750851       -43.18139       0.02792919        101.1605                0               0                0               0
2.01974                0.7677371       -43.70377       0.02868424        96.83384                0               0                0               0
2.02632                0.7601353       -44.23019       0.02945048        92.47774                0               0                0               0
2.03289                0.7522765       -44.76002       0.03022702        88.09268                0               0                0               0
2.03947                0.7441583       -45.29258       0.03101291        83.67927                0               0                0               0
2.04605                0.7357796       -45.82717       0.03180715        79.23815                0               0                0               0
2.05263                0.7271394       -46.36304       0.03260871        74.77003                0               0                0               0
2.05921                0.7182382       -46.89941        0.0334165        70.27567                0               0                0               0
2.06579                0.7090767       -47.43549        0.0342294        65.75585                0               0                0               0
2.07237                0.6996569       -47.97045       0.03504624         61.2114                0               0                0               0
2.07895                0.6899811       -48.50343       0.03586584        56.64317                0               0                0               0
2.08553                0.6800522       -49.03355       0.03668698        52.05203                0               0                0               0
2.09211                0.6698739       -49.55991       0.03750841        47.43886                0               0                0               0
2.09868                0.6594504       -50.08157       0.03832886        42.80457                0               0                0               0
2.10526                0.6487863       -50.59757       0.03914705        38.15004                0               0                0               0
2.11184                0.6378866       -51.10689       0.03996168        33.47619                0               0                0               0
2.11842                0.6267565       -51.60851       0.04077144        28.78392                0               0                0               0
2.125                  0.6154016       -52.10132         0.041575        24.07413                0               0                0               0
2.13158                0.6038277        -52.5842       0.04237106        19.34773                0               0                0               0
2.13816                0.5920407       -53.05589       0.04315829        14.60559                0               0                0               0
2.14474                0.5800468       -53.51512       0.04393535        9.848626                0               0                0               0
2.15132                0.5678519       -53.96048       0.04470095        5.077692                0               0                0               0
2.15789                0.5554625       -54.39044       0.04545379        0.293661                0               0                0               0
2.16447                0.5428848       -54.80335       0.04619256       -4.502609                0               0                0               0
2.17105                0.5301251       -55.19736         0.046916       -9.310274                0               0                0               0
2.17763                0.5171901       -55.57043       0.04762285        -14.1285                0               0                0               0
2.18421                0.5040863       -55.92029       0.04831189       -18.95645                0               0                0               0
2.19079                0.4908208       -56.24436        0.0489819       -23.79332                0               0                0               0
2.19737                0.4774007       -56.53974       0.04963172       -28.63831                0               0                0               0
2.20395                0.4638338       -56.80314       0.05026019       -33.49062                0               0                0               0
2.21053                0.4501285       -57.03078       0.05086622       -38.34947                0               0                0               0
2.21711                0.4362938       -57.21836       0.05144874       -43.21408                0               0                0               0
2.22368                0.4223399       -57.36093       0.05200671        -48.0837                0               0                0               0
2.23026                0.4082782       -57.45277       0.05253915       -52.95755                0               0                0               0
2.23684                0.3941215       -57.48727       0.05304513       -57.83489                0               0                0               0
2.24342                0.3798846        -57.4568       0.05352376       -62.71498                0               0                0               0
2.25                   0.3655846       -57.35245        0.0539742       -67.59709                0               0                0               0
2.25658                0.3512414       -57.16391       0.05439566       -72.48048                0               0                0               0
2.26316                0.3368782       -56.87911       0.05478742       -77.36442                0               0                0               0
2.26974                0.3225223       -56.48398        0.0551488       -82.24819                0               0                0               0
2.27632                0.3082058       -55.96208       0.05547921       -87.13107                0               0                0               0
2.28289                0.2939668       -55.29419       0.05577809       -92.01234                0               0                0               0
2.28947                0.2798505       -54.45791       0.05604495       -96.89129                0               0                0               0