! TOUCHSTONE file generated by CST MICROWAVE STUDIO
! Date and time: Tue Mar 11 13:55:47 2025
! Project name: transverse.cst
! Parameters = {Fracture=1; B=10; D=160; F=5; Feed=2.85625; L=100; M=30; R=0.384908; S=1; Theta=0; length=57.125; wave=114.25}
! Header version: 2024
! Port assignment regex: !\s*Touchstone port\s*([0-9]+)\s*=\s*(CST MWS port|CST DES external port|CST DES block port)\s*(.+)\s* \(\"(.*)\"\)(\s*mode\s*([0-9]+))?.*
! Touchstone port assignment:
! Touchstone port 1 = CST MWS port 1 ("")
! Touchstone port 2 = CST MWS port 2 ("")
# GHz S MA R 50
1                      0.9977096        -10.0244     0.0003575721       -159.8918                0               0                0               0
1.0066                 0.9976111       -10.11448     0.0003669579       -164.1424                0               0                0               0
1.0132                 0.9975077       -10.20491     0.0003755158       -168.3612                0               0                0               0
1.0198                 0.9973997       -10.29568     0.0003832057       -172.5376                0               0                0               0
1.0264                 0.9972882       -10.38677     0.0003899951       -176.6609                0               0                0               0
1.033                  0.9971736       -10.47819     0.0003958596          179.28                0               0                0               0
1.0396                 0.9970567       -10.56993     0.0004007847        175.2966                0               0                0               0
1.0462                 0.9969385       -10.66202     0.0004047672        171.4009                0               0                0               0
1.05281                0.9968198       -10.75446      0.000407816        167.6057                0               0                0               0
1.05941                0.9967009       -10.84729     0.0004099541        163.9246                0               0                0               0
1.06601                0.9965829       -10.94055     0.0004112208         160.372                0               0                0               0
1.07261                0.9964661       -11.03427     0.0004116732         156.963                0               0                0               0
1.07921                0.9963509       -11.12852     0.0004113889        153.7136                0               0                0               0
1.08581                0.9962378       -11.22334     0.0004104683        150.6404                0               0                0               0
1.09241                0.9961271       -11.31879     0.0004090369          147.76                0               0                0               0
1.09901                0.9960185       -11.41493     0.0004072476        145.0887                0               0                0               0
1.10561                0.9959121       -11.51182     0.0004052832        142.6416                0               0                0               0
1.11221                0.9958076       -11.60953      0.000403357        140.4313                0               0                0               0
1.11881                0.9957048       -11.70811     0.0004017131        138.4667                0               0                0               0
1.12541                0.9956029       -11.80761     0.0004006247        136.7508                0               0                0               0
1.13201                0.9955013       -11.90809     0.0004003896        135.2791                0               0                0               0
1.13861                0.9953994       -12.00959     0.0004013229        134.0377                0               0                0               0
1.14521                0.9952963       -12.11215      0.000403746        133.0016                0               0                0               0
1.15182                0.9951909        -12.2158     0.0004079726        132.1346                0               0                0               0
1.15842                0.9950823       -12.32056     0.0004142934        131.3901                0               0                0               0
1.16502                0.9949696       -12.42644     0.0004229594        130.7133                0               0                0               0
1.17162                0.9948518       -12.53345     0.0004341679        130.0454                0               0                0               0
1.17822                0.9947278       -12.64158     0.0004480531        129.3277                0               0                0               0
1.18482                0.9945969       -12.75083     0.0004646817        128.5063                0               0                0               0
1.19142                0.9944583       -12.86117     0.0004840548        127.5359                0               0                0               0
1.19802                0.9943112       -12.97259      0.000506114        126.3817                0               0                0               0
1.20462                 0.994155       -13.08504     0.0005307521        125.0203                0               0                0               0
1.21122                0.9939894        -13.1985     0.0005578234        123.4391                0               0                0               0
1.21782                 0.993814       -13.31292      0.000587155        121.6347                0               0                0               0
1.22442                0.9936285       -13.42828     0.0006185561        119.6112                0               0                0               0
1.23102                0.9934332       -13.54452     0.0006518262        117.3782                0               0                0               0
1.23762                0.9932281       -13.66163     0.0006867605        114.9489                0               0                0               0
1.24422                0.9930135       -13.77955     0.0007231544        112.3386                0               0                0               0
1.25083                  0.99279       -13.89828     0.0007608067         109.564                0               0                0               0
1.25743                0.9925581       -14.01778     0.0007995211        106.6419                0               0                0               0
1.26403                0.9923185       -14.13805     0.0008391081        103.5887                0               0                0               0
1.27063                0.9920719       -14.25907      0.000879385        100.4205                0               0                0               0
1.27723                0.9918193       -14.38086     0.0009201773        97.15236                0               0                0               0
1.28383                0.9915612       -14.50344     0.0009613189        93.79844                0               0                0               0
1.29043                0.9912989       -14.62681      0.001002653          90.372                0               0                0               0
1.29703                0.9910329       -14.75103      0.001044031        86.88534                0               0                0               0
1.30363                0.9907641       -14.87614      0.001085316        83.34991                0               0                0               0
1.31023                0.9904934       -15.00219      0.001126382        79.77634                0               0                0               0
1.31683                 0.990221       -15.12924      0.001167111        76.17453                0               0                0               0
1.32343                0.9899477       -15.25738      0.001207401        72.55369                0               0                0               0
1.33003                0.9896735       -15.38667      0.001247164        68.92246                0               0                0               0
1.33663                0.9893989        -15.5172      0.001286323        65.28889                0               0                0               0
1.34323                0.9891236       -15.64905      0.001324819        61.66057                0               0                0               0
1.34984                0.9888472       -15.78233      0.001362609        58.04462                0               0                0               0
1.35644                0.9885699        -15.9171      0.001399672        54.44772                0               0                0               0
1.36304                0.9882905       -16.05347         0.001436        50.87615                0               0                0               0
1.36964                0.9880086       -16.19151      0.001471612        47.33577                0               0                0               0
1.37624                0.9877232        -16.3313      0.001506547        43.83205                0               0                0               0
1.38284                 0.987433       -16.47293      0.001540866        40.36997                0               0                0               0
1.38944                0.9871372       -16.61644      0.001574658        36.95408                0               0                0               0
1.39604                0.9868341        -16.7619      0.001608036        33.58841                0               0                0               0
1.40264                0.9865227       -16.90936      0.001641138        30.27639                0               0                0               0
1.40924                0.9862013       -17.05886      0.001674131        27.02085                0               0                0               0
1.41584                0.9858687       -17.21042      0.001707206        23.82387                0               0                0               0
1.42244                0.9855233       -17.36407      0.001740583        20.68676                0               0                0               0
1.42904                 0.985164       -17.51981      0.001774503        17.60994                0               0                0               0
1.43564                0.9847893       -17.67764      0.001809233        14.59291                0               0                0               0
1.44224                0.9843981       -17.83756       0.00184506        11.63414                0               0                0               0
1.44884                0.9839893       -17.99956      0.001882285        8.731075                0               0                0               0
1.45545                 0.983562       -18.16362      0.001921227         5.88008                0               0                0               0
1.46205                0.9831156       -18.32973       0.00196221        3.076465                0               0                0               0
1.46865                0.9826492       -18.49785      0.002005563       0.3145462                0               0                0               0
1.47525                0.9821627       -18.66797      0.002051611       -2.412275                0               0                0               0
1.48185                0.9816556       -18.84007      0.002100672       -5.111378                0               0                0               0
1.48845                0.9811278       -19.01413      0.002153049        -7.79075                0               0                0               0
1.49505                0.9805794       -19.19016      0.002209026        -10.4588                0               0                0               0
1.50165                0.9800108       -19.36814       0.00226886       -13.12413                0               0                0               0
1.50825                0.9794219       -19.54809      0.002332779       -15.79529                0               0                0               0
1.51485                0.9788132       -19.73004      0.002400976       -18.48059                0               0                0               0
1.52145                0.9781851         -19.914      0.002473609       -21.18787                0               0                0               0
1.52805                0.9775379       -20.10002      0.002550795       -23.92429                0               0                0               0
1.53465                0.9768722       -20.28818      0.002632616       -26.69625                0               0                0               0
1.54125                0.9761884       -20.47852      0.002719111       -29.50919                0               0                0               0
1.54785                0.9754862       -20.67113      0.002810283       -32.36763                0               0                0               0
1.55446                0.9747663       -20.86611      0.002906101       -35.27503                0               0                0               0
1.56106                0.9740284       -21.06357      0.003006501       -38.23389                0               0                0               0
1.56766                0.9732722       -21.26362      0.003111387       -41.24573                0               0                0               0
1.57426                0.9724974       -21.46637      0.003220639       -44.31119                0               0                0               0
1.58086                 0.971703       -21.67197      0.003334114       -47.43011                0               0                0               0
1.58746                0.9708883       -21.88055      0.003451652       -50.60157                0               0                0               0
1.59406                0.9700521       -22.09223      0.003573074       -53.82404                0               0                0               0
1.60066                0.9691926       -22.30717      0.003698196       -57.09545                0               0                0               0
1.60726                0.9683084       -22.52548      0.003826822       -60.41329                0               0                0               0
1.61386                0.9673973       -22.74731      0.003958754       -63.77468                0               0                0               0
1.62046                0.9664569       -22.97277      0.004093798       -67.17649                0               0                0               0
1.62706                0.9654849       -23.20197      0.004231758       -70.61534                0               0                0               0
1.63366                0.9644785       -23.43502      0.004372449       -74.08774                0               0                0               0
1.64026                0.9634348       -23.67201      0.004515696        -77.5901                0               0                0               0
1.64686                0.9623509       -23.91302      0.004661337       -81.11878                0               0                0               0
1.65347                0.9612237       -24.15811      0.004809231       -84.67015                0               0                0               0
1.66007                0.9600501       -24.40732      0.004959252       -88.24063                0               0                0               0
1.66667                0.9588268        -24.6607      0.005111303       -91.82668                0               0                0               0
1.67327                0.9575507       -24.91825      0.005265311       -95.42489                0               0                0               0
1.67987                 0.956219       -25.17999      0.005421235       -99.03195                0               0                0               0
1.68647                0.9548284       -25.44589      0.005579067       -102.6447                0               0                0               0
1.69307                0.9533763       -25.71596      0.005738833       -106.2602                0               0                0               0
1.69967                0.9518601       -25.99014        0.0059006       -109.8757                0               0                0               0
1.70627                0.9502774       -26.26841      0.006064476       -113.4886                0               0                0               0
1.71287                0.9486259       -26.55072      0.006230613       -117.0965                0               0                0               0
1.71947                0.9469037       -26.83703       0.00639921       -120.6974                0               0                0               0
1.72607                0.9451089       -27.12728      0.006570509       -124.2895                0               0                0               0
1.73267                0.9432402       -27.42144      0.006744805       -127.8714                0               0                0               0
1.73927                0.9412963       -27.71947      0.006922442       -131.4417                0               0                0               0
1.74587                0.9392758       -28.02133      0.007103811       -134.9997                0               0                0               0
1.75248                0.9371783       -28.32701      0.007289355       -138.5448                0               0                0               0
1.75908                0.9350026        -28.6365      0.007479564       -142.0771                0               0                0               0
1.76568                0.9327484       -28.94981      0.007674973       -145.5966                0               0                0               0
1.77228                0.9304149       -29.26697      0.007876162        -149.104                0               0                0               0
1.77888                0.9280017       -29.58802      0.008083751       -152.6003                0               0                0               0
1.78548                0.9255081       -29.91301      0.008298391       -156.0869                0               0                0               0
1.79208                0.9229334       -30.24204      0.008520768       -159.5655                0               0                0               0
1.79868                0.9202769        -30.5752      0.008751589       -163.0383                0               0                0               0
1.80528                0.9175372       -30.91263      0.008991577       -166.5075                0               0                0               0
1.81188                0.9147136       -31.25444      0.009241473        -169.976                0               0                0               0
1.81848                0.9118042       -31.60082      0.009502011       -173.4465                0               0                0               0
1.82508                 0.908807       -31.95192      0.009773921       -176.9222                0               0                0               0
1.83168                0.9057199       -32.30794       0.01005793        179.5935                0               0                0               0
1.83828                0.9025402       -32.66905       0.01035472        176.0974                0               0                0               0
1.84488                0.8992646       -33.03547       0.01066497         172.586                0               0                0               0
1.85149                0.8958896        -33.4074        0.0109893        169.0561                0               0                0               0
1.85809                0.8924111       -33.78502        0.0113283        165.5041                0               0                0               0
1.86469                0.8888246       -34.16856       0.01168251        161.9271                0               0                0               0
1.87129                 0.885125       -34.55818        0.0120524        158.3219                0               0                0               0
1.87789                 0.881307       -34.95405       0.01243839        154.6857                0               0                0               0
1.88449                0.8773647       -35.35635       0.01284083         151.016                0               0                0               0
1.89109                0.8732919        -35.7652       0.01326001        147.3104                0               0                0               0
1.89769                 0.869082        -36.1807       0.01369615         143.567                0               0                0               0
1.90429                0.8647283       -36.60296       0.01414938        139.7839                0               0                0               0
1.91089                0.8602239         -37.032       0.01461977        135.9597                0               0                0               0
1.91749                0.8555614       -37.46785       0.01510734        132.0934                0               0                0               0
1.92409                0.8507337        -37.9105         0.015612        128.1839                0               0                0               0
1.93069                0.8457336       -38.35987        0.0161336        124.2308                0               0                0               0
1.93729                0.8405537       -38.81589       0.01667195        120.2337                0               0                0               0
1.94389                0.8351872       -39.27841       0.01722676        116.1926                0               0                0               0
1.9505                 0.8296272       -39.74724       0.01779768        112.1075                0               0                0               0
1.9571                 0.8238669       -40.22219       0.01838432        107.9788                0               0                0               0
1.9637                 0.8179003       -40.70297       0.01898619        103.8071                0               0                0               0
1.9703                 0.8117214       -41.18931       0.01960279         99.5929                0               0                0               0
1.9769                 0.8053247       -41.68085       0.02023351        95.33713                0               0                0               0
1.9835                 0.7987053       -42.17724       0.02087775        91.04068                0               0                0               0
1.9901                 0.7918588       -42.67805       0.02153481        86.70457                0               0                0               0
1.9967                 0.7847811       -43.18286       0.02220396         82.3299                0               0                0               0
2.0033                 0.7774692       -43.69117       0.02288443        77.91783                0               0                0               0
2.0099                 0.7699199        -44.2025       0.02357541        73.46957                0               0                0               0
2.0165                 0.7621315       -44.71629       0.02427603        68.98638                0               0                0               0
2.0231                 0.7541022         -45.232       0.02498542        64.46952                0               0                0               0
2.0297                  0.745831       -45.74902       0.02570264        59.92028                0               0                0               0
2.0363                 0.7373173       -46.26676       0.02642673        55.33997                0               0                0               0
2.0429                 0.7285615       -46.78456       0.02715672        50.72988                0               0                0               0
2.0495                  0.719564       -47.30179        0.0278916         46.0913                0               0                0               0
2.05611                0.7103259       -47.81773       0.02863031         41.4255                0               0                0               0
2.06271                0.7008487       -48.33166       0.02937182        36.73375                0               0                0               0
2.06931                0.6911345       -48.84286       0.03011504         32.0173                0               0                0               0
2.07591                0.6811854       -49.35053       0.03085889        27.27737                0               0                0               0
2.08251                0.6710042       -49.85386       0.03160225        22.51515                0               0                0               0
2.08911                0.6605937       -50.35201       0.03234403        17.73181                0               0                0               0
2.09571                0.6499574       -50.84405       0.03308308        12.92851                0               0                0               0
2.10231                0.6390986       -51.32902       0.03381829         8.10637                0               0                0               0
2.10891                0.6280211        -51.8059       0.03454851        3.266472                0               0                0               0
2.11551                0.6167289       -52.27359       0.03527262       -1.590112                0               0                0               0
2.12211                0.6052262       -52.73091       0.03598949       -6.462347                0               0                0               0
2.12871                0.5935173       -53.17653       0.03669799       -11.34922                0               0                0               0
2.13531                0.5816072       -53.60906       0.03739699       -16.24974                0               0                0               0
2.14191                0.5695006       -54.02694       0.03808541       -21.16295                0               0                0               0
2.14851                 0.557203       -54.42845       0.03876213       -26.08791                0               0                0               0
2.15512                0.5447198        -54.8117       0.03942607       -31.02372                0               0                0               0
2.16172                0.5320574       -55.17457       0.04007618       -35.96946                0               0                0               0
2.16832                0.5192224        -55.5147        0.0407114       -40.92428                0               0                0               0
2.17492                0.5062219       -55.82945       0.04133072       -45.88733                0               0                0               0
2.18152                0.4930639       -56.11585       0.04193314       -50.85776                0               0                0               0
2.18812                0.4797573       -56.37057        0.0425177       -55.83478                0               0                0               0
2.19472                 0.466312       -56.58983       0.04308344       -60.81757                0               0                0               0
2.20132                0.4527388       -56.76938       0.04362949       -65.80535                0               0                0               0
2.20792                0.4390501       -56.90443       0.04415494       -70.79736                0               0                0               0
2.21452                0.4252598       -56.98949       0.04465898       -75.79283                0               0                0               0
2.22112                0.4113834       -57.01837        0.0451408       -80.79103                0               0                0               0
2.22772                0.3974389       -56.98402       0.04559965       -85.79122                0               0                0               0
2.23432                0.3834461       -56.87843       0.04603483       -90.79267                0               0                0               0
2.24092                 0.369428       -56.69244       0.04644566       -95.79466                0               0                0               0
2.24752                0.3554106       -56.41566       0.04683152       -100.7965                0               0                0               0
2.25413                0.3414235       -56.03622       0.04719185       -105.7975                0               0                0               0
2.26073                0.3275006       -55.54057       0.04752612       -110.7969                0               0                0               0
2.26733                0.3136807       -54.91338       0.04783386        -115.794                0               0                0               0
2.27393                0.3000083        -54.1372       0.04811465       -120.7882                0               0                0               0
2.28053                0.2865345       -53.19239       0.04836813       -125.7788                0               0                0               0
2.28713                0.2733179       -52.05697         0.048594       -130.7651                0               0                0               0
2.29373                0.2604262       -50.70662       0.04879201       -135.7463                0               0                0               0