! TOUCHSTONE file generated by CST MICROWAVE STUDIO
! Date and time: Tue Mar 11 13:56:41 2025
! Project name: transverse.cst
! Parameters = {Fracture=5; B=10; D=160; F=25; Feed=2.85625; L=100; M=10; R=0.384908; S=2; Theta=90; length=57.125; wave=114.25}
! Header version: 2024
! Port assignment regex: !\s*Touchstone port\s*([0-9]+)\s*=\s*(CST MWS port|CST DES external port|CST DES block port)\s*(.+)\s* \(\"(.*)\"\)(\s*mode\s*([0-9]+))?.*
! Touchstone port assignment:
! Touchstone port 1 = CST MWS port 1 ("")
! Touchstone port 2 = CST MWS port 2 ("")
# GHz S MA R 50
1                      0.9977977       -9.743491     0.0003658239        -162.378                0               0                0               0
1.00658                0.9977124       -9.831172     0.0003709732       -165.9707                0               0                0               0
1.01316                0.9976233       -9.919331     0.0003755973       -169.4409                0               0                0               0
1.01974                0.9975307       -10.00797     0.0003797588       -172.7792                0               0                0               0
1.02632                0.9974348       -10.09707     0.0003835361       -175.9768                0               0                0               0
1.03289                0.9973362       -10.18666     0.0003870245       -179.0255                0               0                0               0
1.03947                0.9972351       -10.27673     0.0003903369        178.0816                0               0                0               0
1.04605                0.9971315        -10.3673      0.000393604        175.3498                0               0                0               0
1.05263                 0.997026       -10.45837     0.0003969743        172.7821                0               0                0               0
1.05921                0.9969188       -10.54998     0.0004006133        170.3784                0               0                0               0
1.06579                0.9968101       -10.64213     0.0004047011        168.1352                0               0                0               0
1.07237                0.9967001       -10.73486     0.0004094299        166.0447                0               0                0               0
1.07895                0.9965888       -10.82819     0.0004149994        164.0944                0               0                0               0
1.08553                0.9964765       -10.92215      0.000421612        162.2668                0               0                0               0
1.09211                0.9963632       -11.01677      0.000429466        160.5399                0               0                0               0
1.09868                0.9962486       -11.11208     0.0004387492        158.8876                0               0                0               0
1.10526                0.9961329       -11.20812     0.0004496319        157.2804                0               0                0               0
1.11184                0.9960156       -11.30492     0.0004622608        155.6877                0               0                0               0
1.11842                0.9958968        -11.4025     0.0004767541        154.0781                0               0                0               0
1.125                  0.9957758       -11.50089     0.0004931981        152.4222                0               0                0               0
1.13158                0.9956526       -11.60012     0.0005116459        150.6933                0               0                0               0
1.13816                0.9955266       -11.70022     0.0005321178        148.8687                0               0                0               0
1.14474                0.9953974       -11.80119     0.0005546032        146.9303                0               0                0               0
1.15132                0.9952645       -11.90307     0.0005790637        144.8648                0               0                0               0
1.15789                0.9951273       -12.00587     0.0006054373        142.6638                0               0                0               0
1.16447                0.9949855       -12.10958      0.000633642        140.3232                0               0                0               0
1.17105                0.9948385       -12.21423     0.0006635798        137.8424                0               0                0               0
1.17763                0.9946859        -12.3198     0.0006951408        135.2241                0               0                0               0
1.18421                0.9945272        -12.4263     0.0007282059        132.4731                0               0                0               0
1.19079                0.9943619       -12.53373     0.0007626496        129.5961                0               0                0               0
1.19737                0.9941899       -12.64207     0.0007983423         126.601                0               0                0               0
1.20395                0.9940108       -12.75132     0.0008351519        123.4964                0               0                0               0
1.21053                0.9938242       -12.86146     0.0008729457        120.2914                0               0                0               0
1.21711                0.9936303       -12.97249     0.0009115909         116.995                0               0                0               0
1.22368                0.9934287       -13.08439     0.0009509562        113.6164                0               0                0               0
1.23026                0.9932196       -13.19714     0.0009909118        110.1645                0               0                0               0
1.23684                0.9930029       -13.31075      0.001031331        106.6479                0               0                0               0
1.24342                0.9927789       -13.42519      0.001072091        103.0748                0               0                0               0
1.25                   0.9925476       -13.54047      0.001113071         99.4532                0               0                0               0
1.25658                0.9923095       -13.65658      0.001154158        95.79048                0               0                0               0
1.26316                0.9920646       -13.77353      0.001195241        92.09379                0               0                0               0
1.26974                0.9918136       -13.89131      0.001236217        88.36989                0               0                0               0
1.27632                0.9915566       -14.00995      0.001276989        84.62517                0               0                0               0
1.28289                 0.991294       -14.12946      0.001317466         80.8657                0               0                0               0
1.28947                0.9910263       -14.24985      0.001357568        77.09724                0               0                0               0
1.29605                0.9907537       -14.37115      0.001397221        73.32528                0               0                0               0
1.30263                0.9904767        -14.4934      0.001436362        69.55502                0               0                0               0
1.30921                0.9901954       -14.61663      0.001474938        65.79142                0               0                0               0
1.31579                0.9899103       -14.74087      0.001512909        62.03921                0               0                0               0
1.32237                0.9896212       -14.86618      0.001550245        58.30289                0               0                0               0
1.32895                0.9893286        -14.9926       0.00158693        54.58671                0               0                0               0
1.33553                0.9890322       -15.12017      0.001622962        50.89474                0               0                0               0
1.34211                0.9887322       -15.24895      0.001658355        47.23078                0               0                0               0
1.34868                0.9884284         -15.379      0.001693138        43.59842                0               0                0               0
1.35526                0.9881205       -15.51036      0.001727355        40.00097                0               0                0               0
1.36184                0.9878083       -15.64308      0.001761069        36.44148                0               0                0               0
1.36842                0.9874911       -15.77723       0.00179436        32.92268                0               0                0               0
1.375                  0.9871689       -15.91284      0.001827325        29.44698                0               0                0               0
1.38158                 0.986841       -16.04996      0.001860082        26.01642                0               0                0               0
1.38816                0.9865067       -16.18864      0.001892763         22.6326                0               0                0               0
1.39474                0.9861654       -16.32893      0.001925521        19.29672                0               0                0               0
1.40132                0.9858165       -16.47085      0.001958525        16.00943                0               0                0               0
1.40789                0.9854594       -16.61444       0.00199196         12.7709                0               0                0               0
1.41447                0.9850934       -16.75973      0.002026026        9.580688                0               0                0               0
1.42105                0.9847176       -16.90674      0.002060938        6.437773                0               0                0               0
1.42763                0.9843316       -17.05551      0.002096919        3.340503                0               0                0               0
1.43421                0.9839348       -17.20605      0.002134204       0.2865957                0               0                0               0
1.44079                0.9835265       -17.35838      0.002173033       -2.726859                0               0                0               0
1.44737                0.9831062       -17.51251      0.002213647       -5.703378                0               0                0               0
1.45395                0.9826735       -17.66846      0.002256289       -8.647047                0               0                0               0
1.46053                 0.982228       -17.82624      0.002301197       -11.56245                0               0                0               0
1.46711                0.9817695       -17.98588      0.002348601       -14.45463                0               0                0               0
1.47368                0.9812976       -18.14739      0.002398722       -17.32893                0               0                0               0
1.48026                0.9808122       -18.31078      0.002451765       -20.19096                0               0                0               0
1.48684                0.9803131       -18.47609      0.002507918       -23.04643                0               0                0               0
1.49342                0.9798004       -18.64335      0.002567349       -25.90105                0               0                0               0
1.5                    0.9792739       -18.81258      0.002630203       -28.76042                0               0                0               0
1.50658                0.9787338       -18.98383      0.002696603       -31.62989                0               0                0               0
1.51316                  0.97818       -19.15715      0.002766644        -34.5145                0               0                0               0
1.51974                0.9776125       -19.33258      0.002840399       -37.41882                0               0                0               0
1.52632                0.9770314       -19.51021      0.002917914       -40.34697                0               0                0               0
1.53289                0.9764366       -19.69008      0.002999209       -43.30249                0               0                0               0
1.53947                0.9758279       -19.87229      0.003084281       -46.28837                0               0                0               0
1.54605                0.9752053       -20.05691      0.003173106       -49.30696                0               0                0               0
1.55263                0.9745683       -20.24404      0.003265639       -52.36004                0               0                0               0
1.55921                0.9739166       -20.43378      0.003361817       -55.44883                0               0                0               0
1.56579                0.9732497       -20.62623       0.00346156       -58.57398                0               0                0               0
1.57237                0.9725668        -20.8215      0.003564777       -61.73563                0               0                0               0
1.57895                0.9718671       -21.01971      0.003671366       -64.93347                0               0                0               0
1.58553                0.9711494       -21.22097      0.003781215       -68.16678                0               0                0               0
1.59211                0.9704127        -21.4254       0.00389421       -71.43445                0               0                0               0
1.59868                0.9696554       -21.63312      0.004010232       -74.73511                0               0                0               0
1.60526                0.9688761       -21.84425      0.004129164       -78.06708                0               0                0               0
1.61184                0.9680729       -22.05889      0.004250891        -81.4285                0               0                0               0
1.61842                0.9672439       -22.27717      0.004375302       -84.81734                0               0                0               0
1.625                   0.966387       -22.49918      0.004502295       -88.23145                0               0                0               0
1.63158                0.9654999       -22.72504      0.004631779       -91.66861                0               0                0               0
1.63816                0.9645802       -22.95482      0.004763672       -95.12653                0               0                0               0
1.64474                0.9636255       -23.18863      0.004897909       -98.60293                0               0                0               0
1.65132                0.9626331       -23.42654      0.005034441       -102.0955                0               0                0               0
1.65789                0.9616003       -23.66861      0.005173237       -105.6021                0               0                0               0
1.66447                0.9605246       -23.91491      0.005314285       -109.1206                0               0                0               0
1.67105                 0.959403        -24.1655      0.005457597       -112.6487                0               0                0               0
1.67763                0.9582328        -24.4204      0.005603207       -116.1847                0               0                0               0
1.68421                0.9570114       -24.67967      0.005751173       -119.7267                0               0                0               0
1.69079                0.9557362       -24.94332      0.005901583        -123.273                0               0                0               0
1.69737                0.9544042       -25.21137      0.006054545        -126.822                0               0                0               0
1.70395                0.9530131       -25.48385      0.006210199       -130.3725                0               0                0               0
1.71053                0.9515605       -25.76076      0.006368712       -133.9234                0               0                0               0
1.71711                0.9500439        -26.0421      0.006530281       -137.4735                0               0                0               0
1.72368                0.9484611       -26.32789      0.006695127       -141.0223                0               0                0               0
1.73026                  0.94681       -26.61813      0.006863502       -144.5692                0               0                0               0
1.73684                0.9450885       -26.91282      0.007035682       -148.1139                0               0                0               0
1.74342                0.9432949       -27.21199      0.007211972       -151.6563                0               0                0               0
1.75                   0.9414271       -27.51562      0.007392696       -155.1966                0               0                0               0
1.75658                0.9394835       -27.82376      0.007578203       -158.7352                0               0                0               0
1.76316                0.9374623       -28.13643       0.00776886       -162.2727                0               0                0               0
1.76974                0.9353618       -28.45366      0.007965051       -165.8098                0               0                0               0
1.77632                0.9331806        -28.7755      0.008167174       -169.3478                0               0                0               0
1.78289                0.9309169       -29.10202      0.008375638       -172.8877                0               0                0               0
1.78947                0.9285688       -29.43326      0.008590853       -176.4309                0               0                0               0
1.79605                 0.926135       -29.76932      0.008813239       -179.9791                0               0                0               0
1.80263                0.9236131       -30.11029      0.009043209        176.4661                0               0                0               0
1.80921                0.9210013       -30.45628      0.009281172         172.903                0               0                0               0
1.81579                0.9182974       -30.80738      0.009527525        169.3295                0               0                0               0
1.82237                 0.915499       -31.16374      0.009782655        165.7438                0               0                0               0
1.82895                0.9126033       -31.52548       0.01004693        162.1439                0               0                0               0
1.83553                0.9096076       -31.89275       0.01032068        158.5279                0               0                0               0
1.84211                0.9065084        -32.2657       0.01060424        154.8938                0               0                0               0
1.84868                0.9033025       -32.64448       0.01089788        151.2397                0               0                0               0
1.85526                0.8999859       -33.02925       0.01120187        147.5638                0               0                0               0
1.86184                0.8965543       -33.42016       0.01151642        143.8643                0               0                0               0
1.86842                0.8930034       -33.81737        0.0118417        140.1397                0               0                0               0
1.875                  0.8893282       -34.22104       0.01217788        136.3885                0               0                0               0
1.88158                0.8855235       -34.63129       0.01252503        132.6093                0               0                0               0
1.88816                0.8815838       -35.04827       0.01288321         128.801                0               0                0               0
1.89474                0.8775031        -35.4721       0.01325245        124.9624                0               0                0               0
1.90132                0.8732754       -35.90289       0.01363269        121.0929                0               0                0               0
1.90789                0.8688943        -36.3407       0.01402388        117.1915                0               0                0               0
1.91447                 0.864353       -36.78562       0.01442588        113.2578                0               0                0               0
1.92105                0.8596446       -37.23768       0.01483853        109.2915                0               0                0               0
1.92763                0.8547622       -37.69689       0.01526162        105.2921                0               0                0               0
1.93421                0.8496986       -38.16325       0.01569489        101.2598                0               0                0               0
1.94079                0.8444465        -38.6367       0.01613807        97.19436                0               0                0               0
1.94737                0.8389986       -39.11718       0.01659081        93.09611                0               0                0               0
1.95395                0.8333476       -39.60456       0.01705274        88.96526                0               0                0               0
1.96053                0.8274865       -40.09869       0.01752345        84.80221                0               0                0               0
1.96711                0.8214082       -40.59939        0.0180025        80.60743                0               0                0               0
1.97368                0.8151056       -41.10643       0.01848942        76.38146                0               0                0               0
1.98026                0.8085723       -41.61954       0.01898369        72.12495                0               0                0               0
1.98684                0.8018017        -42.1384       0.01948478        67.83859                0               0                0               0
1.99342                0.7947878       -42.66266       0.01999211        63.52313                0               0                0               0
2                       0.787525        -43.1919        0.0205051        59.17938                0               0                0               0
2.00658                0.7800079        -43.7257       0.02102312        54.80816                0               0                0               0
2.01316                0.7722319       -44.26353       0.02154554        50.41036                0               0                0               0
2.01974                0.7641924       -44.80485       0.02207169        45.98687                0               0                0               0
2.02632                0.7558859       -45.34906       0.02260089        41.53861                0               0                0               0
2.03289                 0.747309        -45.8955       0.02313244        37.06652                0               0                0               0
2.03947                0.7384592       -46.44346       0.02366564        32.57153                0               0                0               0
2.04605                0.7293347       -46.99217       0.02419976        28.05459                0               0                0               0
2.05263                0.7199342       -47.54079       0.02473406        23.51666                0               0                0               0
2.05921                0.7102571       -48.08842        0.0252678         18.9587                0               0                0               0
2.06579                0.7003036        -48.6341       0.02580023        14.38163                0               0                0               0
2.07237                0.6900746       -49.17679       0.02633058        9.786402                0               0                0               0
2.07895                0.6795717       -49.71536       0.02685811        5.173955                0               0                0               0
2.08553                0.6687974       -50.24861       0.02738205       0.5452062                0               0                0               0
2.09211                0.6577551       -50.77525       0.02790163       -4.098929                0               0                0               0
2.09868                0.6464488       -51.29387       0.02841611       -8.757549                0               0                0               0
2.10526                0.6348833       -51.80297       0.02892472       -13.42977                0               0                0               0
2.11184                0.6230646       -52.30092       0.02942673        -18.1147                0               0                0               0
2.11842                0.6109992       -52.78598       0.02992138       -22.81149                0               0                0               0
2.125                  0.5986948       -53.25623       0.03040796       -27.51929                0               0                0               0
2.13158                0.5861599       -53.70962       0.03088575       -32.23726                0               0                0               0
2.13816                0.5734037        -54.1439       0.03135404       -36.96457                0               0                0               0
2.14474                0.5604369       -54.55664       0.03181214       -41.70042                0               0                0               0
2.15132                0.5472709       -54.94517       0.03225939       -46.44401                0               0                0               0
2.15789                0.5339181       -55.30661       0.03269513       -51.19455                0               0                0               0
2.16447                0.5203921       -55.63776       0.03311874       -55.95127                0               0                0               0
2.17105                0.5067078       -55.93512       0.03352959       -60.71341                0               0                0               0
2.17763                0.4928811       -56.19486       0.03392711       -65.48022                0               0                0               0
2.18421                0.4789293       -56.41275       0.03431074       -70.25097                0               0                0               0
2.19079                0.4648712       -56.58412       0.03467995       -75.02491                0               0                0               0
2.19737                0.4507269       -56.70379       0.03503422       -79.80134                0               0                0               0
2.20395                0.4365182       -56.76605       0.03537309       -84.57954                0               0                0               0
2.21053                0.4222687       -56.76453       0.03569609       -89.35882                0               0                0               0
2.21711                 0.408004       -56.69219       0.03600283       -94.13847                0               0                0               0
2.22368                0.3937518       -56.54117       0.03629292       -98.91782                0               0                0               0
2.23026                0.3795422       -56.30276       0.03656601       -103.6962                0               0                0               0
2.23684                 0.365408       -55.96726        0.0368218       -108.4729                0               0                0               0
2.24342                0.3513849       -55.52393       0.03705999       -113.2473                0               0                0               0
2.25                   0.3375123       -54.96086       0.03728037       -118.0187                0               0                0               0
2.25658                0.3238331       -54.26491       0.03748272       -122.7865                0               0                0               0
2.26316                0.3103947       -53.42174       0.03766688         -127.55                0               0                0               0
2.26974                0.2972493       -52.41571       0.03783272       -132.3086                0               0                0               0
2.27632                0.2844546        -51.2301       0.03798016       -137.0616                0               0                0               0
2.28289                0.2720741       -49.84728       0.03810915       -141.8085                0               0                0               0
2.28947                0.2601777       -48.24925       0.03821968       -146.5485                0               0                0               0