! TOUCHSTONE file generated by CST MICROWAVE STUDIO
! Date and time: Tue Mar 11 13:58:21 2025
! Project name: transverse.cst
! Parameters = {Fracture=5; B=12.5; D=160; F=15; Feed=2.85625; L=100; M=20; R=0.384908; S=2; Theta=270; length=57.125; wave=114.25}
! Header version: 2024
! Port assignment regex: !\s*Touchstone port\s*([0-9]+)\s*=\s*(CST MWS port|CST DES external port|CST DES block port)\s*(.+)\s* \(\"(.*)\"\)(\s*mode\s*([0-9]+))?.*
! Touchstone port assignment:
! Touchstone port 1 = CST MWS port 1 ("")
! Touchstone port 2 = CST MWS port 2 ("")
# GHz S MA R 50
1                      0.9976765       -9.760844     0.0004345638       -173.0995                0               0                0               0
1.0066                 0.9975931       -9.848299      0.000433864        -177.792                0               0                0               0
1.0132                 0.9975078       -9.936263     0.0004317608        177.6701                0               0                0               0
1.0198                 0.9974207       -10.02475     0.0004282908        173.3043                0               0                0               0
1.0264                 0.9973319       -10.11377     0.0004235127        169.1311                0               0                0               0
1.033                  0.9972415       -10.20334       0.00041751        165.1742                0               0                0               0
1.0396                 0.9971498       -10.29348     0.0004103967        161.4612                0               0                0               0
1.0462                 0.9970567       -10.38421     0.0004023217        158.0233                0               0                0               0
1.05281                0.9969623       -10.47556     0.0003934765         154.896                0               0                0               0
1.05941                0.9968667       -10.56753     0.0003841018        152.1177                0               0                0               0
1.06601                0.9967695       -10.66016     0.0003744959        149.7292                0               0                0               0
1.07261                 0.996671       -10.75347     0.0003650224        147.7705                0               0                0               0
1.07921                 0.996571       -10.84749     0.0003561159        146.2764                0               0                0               0
1.08581                0.9964691       -10.94223     0.0003482821        145.2698                0               0                0               0
1.09241                0.9963653       -11.03771     0.0003420905        144.7529                0               0                0               0
1.09901                0.9962594       -11.13397      0.000338152        144.6967                0               0                0               0
1.10561                 0.996151       -11.23101      0.000337081        145.0332                0               0                0               0
1.11221                0.9960399       -11.32887     0.0003394426        145.6527                0               0                0               0
1.11881                0.9959256       -11.42754     0.0003456933        146.4112                0               0                0               0
1.12541                 0.995808       -11.52705     0.0003561318         147.148                0               0                0               0
1.13201                0.9956867       -11.62741     0.0003708723        147.7085                0               0                0               0
1.13861                0.9955612       -11.72863     0.0003898506        147.9656                0               0                0               0
1.14521                0.9954312       -11.83071     0.0004128555        147.8317                0               0                0               0
1.15182                0.9952965       -11.93367     0.0004395741        147.2609                0               0                0               0
1.15842                0.9951566        -12.0375     0.0004696361        146.2425                0               0                0               0
1.16502                0.9950114        -12.1422       0.00050265        144.7915                0               0                0               0
1.17162                0.9948607       -12.24778     0.0005382273        142.9389                0               0                0               0
1.17822                0.9947039       -12.35423     0.0005759964         140.724                0               0                0               0
1.18482                0.9945413       -12.46156     0.0006156094        138.1887                0               0                0               0
1.19142                0.9943723       -12.56975     0.0006567428        135.3738                0               0                0               0
1.19802                0.9941972       -12.67881     0.0006990975        132.3179                0               0                0               0
1.20462                0.9940158       -12.78873     0.0007423961        129.0556                0               0                0               0
1.21122                0.9938281       -12.89953       0.00078638        125.6181                0               0                0               0
1.21782                0.9936339       -13.01118     0.0008308075        122.0327                0               0                0               0
1.22442                0.9934336        -13.1237     0.0008754521        118.3236                0               0                0               0
1.23102                0.9932272        -13.2371     0.0009201001        114.5119                0               0                0               0
1.23762                0.9930146       -13.35138     0.0009645499        110.6163                0               0                0               0
1.24422                0.9927962       -13.46654      0.001008611        106.6533                0               0                0               0
1.25083                 0.992572       -13.58261      0.001052106        102.6375                0               0                0               0
1.25743                0.9923423        -13.6996      0.001094865        98.58208                0               0                0               0
1.26403                0.9921069       -13.81752      0.001136733        94.49897                0               0                0               0
1.27063                0.9918663        -13.9364      0.001177564        90.39895                0               0                0               0
1.27723                0.9916203       -14.05626      0.001217227        86.29201                0               0                0               0
1.28383                0.9913692       -14.17713      0.001255605        82.18743                0               0                0               0
1.29043                 0.991113       -14.29904      0.001292594        78.09392                0               0                0               0
1.29703                0.9908517       -14.42202      0.001328107        74.01975                0               0                0               0
1.30363                0.9905851        -14.5461      0.001362077        69.97281                0               0                0               0
1.31023                0.9903133       -14.67132      0.001394456        65.96073                0               0                0               0
1.31683                0.9900361       -14.79772      0.001425215        61.99087                0               0                0               0
1.32343                0.9897534       -14.92532      0.001454352        58.07041                0               0                0               0
1.33003                0.9894647       -15.05416       0.00148189        54.20635                0               0                0               0
1.33663                0.9891698       -15.18429      0.001507878        50.40551                0               0                0               0
1.34323                0.9888686       -15.31574      0.001532399        46.67446                0               0                0               0
1.34984                0.9885606       -15.44852      0.001555564        43.01956                0               0                0               0
1.35644                0.9882454       -15.58269      0.001577523        39.44682                0               0                0               0
1.36304                0.9879225       -15.71827      0.001598459         35.9618                0               0                0               0
1.36964                0.9875915       -15.85529      0.001618596        32.56951                0               0                0               0
1.37624                0.9872519       -15.99377      0.001638194        29.27423                0               0                0               0
1.38284                0.9869035       -16.13373      0.001657555        26.07933                0               0                0               0
1.38944                0.9865455        -16.2752      0.001677021        22.98702                0               0                0               0
1.39604                0.9861776       -16.41821      0.001696971        19.99817                0               0                0               0
1.40264                0.9857994       -16.56276      0.001717817        17.11202                0               0                0               0
1.40924                0.9854105       -16.70887      0.001740005          14.326                0               0                0               0
1.41584                0.9850105       -16.85657      0.001764004        11.63554                0               0                0               0
1.42244                0.9845993       -17.00587      0.001790303        9.033906                0               0                0               0
1.42904                0.9841764       -17.15678      0.001819395        6.512195                0               0                0               0
1.43564                0.9837416       -17.30933      0.001851774        4.059389                0               0                0               0
1.44224                0.9832948       -17.46353      0.001887918        1.662553                0               0                0               0
1.44884                0.9828357        -17.6194      0.001928282      -0.6928488                0               0                0               0
1.45545                0.9823642       -17.77697      0.001973281       -3.022517                0               0                0               0
1.46205                0.9818805       -17.93627      0.002023286       -5.342786                0               0                0               0
1.46865                0.9813844       -18.09732      0.002078609       -7.670047                0               0                0               0
1.47525                0.9808757       -18.26017        0.0021395       -10.02016                0               0                0               0
1.48185                0.9803546       -18.42485      0.002206143       -12.40793                0               0                0               0
1.48845                 0.979821        -18.5914      0.002278654       -14.84665                0               0                0               0
1.49505                0.9792748       -18.75988      0.002357082       -17.34774                0               0                0               0
1.50165                0.9787158       -18.93035      0.002441411       -19.92055                0               0                0               0
1.50825                0.9781442       -19.10286      0.002531568        -22.5723                0               0                0               0
1.51485                0.9775595       -19.27748      0.002627425       -25.30807                0               0                0               0
1.52145                0.9769618       -19.45428       0.00272881       -28.13093                0               0                0               0
1.52805                0.9763505       -19.63333       0.00283551       -31.04212                0               0                0               0
1.53465                0.9757252       -19.81472      0.002947282       -34.04131                0               0                0               0
1.54125                0.9750855       -19.99853      0.003063854       -37.12678                0               0                0               0
1.54785                0.9744309       -20.18484      0.003184937       -40.29574                0               0                0               0
1.55446                0.9737605       -20.37375      0.003310226       -43.54449                0               0                0               0
1.56106                0.9730736       -20.56534      0.003439408       -46.86867                0               0                0               0
1.56766                0.9723689       -20.75971      0.003572162       -50.26343                0               0                0               0
1.57426                0.9716458       -20.95695      0.003708171        -53.7236                0               0                0               0
1.58086                0.9709029       -21.15714      0.003847117        -57.2438                0               0                0               0
1.58746                0.9701388       -21.36038       0.00398869       -60.81855                0               0                0               0
1.59406                0.9693522       -21.56675      0.004132587       -64.44236                0               0                0               0
1.60066                0.9685416       -21.77634       0.00427852       -68.10978                0               0                0               0
1.60726                0.9677053       -21.98923      0.004426213       -71.81548                0               0                0               0
1.61386                0.9668416       -22.20549      0.004575409       -75.55425                0               0                0               0
1.62046                0.9659489        -22.4252      0.004725871       -79.32103                0               0                0               0
1.62706                0.9650256       -22.64844      0.004877385       -83.11097                0               0                0               0
1.63366                0.9640694       -22.87526      0.005029762        -86.9194                0               0                0               0
1.64026                0.9630787       -23.10572      0.005182839       -90.74183                0               0                0               0
1.64686                0.9620517       -23.33988      0.005336489       -94.57403                0               0                0               0
1.65347                0.9609863        -23.5778      0.005490614       -98.41194                0               0                0               0
1.66007                0.9598807       -23.81952      0.005645154       -102.2518                0               0                0               0
1.66667                0.9587332       -24.06509      0.005800086       -106.0899                0               0                0               0
1.67327                0.9575418       -24.31457      0.005955433       -109.9231                0               0                0               0
1.67987                0.9563048       -24.56798      0.006111257       -113.7481                0               0                0               0
1.68647                0.9550204       -24.82538      0.006267668       -117.5622                0               0                0               0
1.69307                 0.953687       -25.08682      0.006424825       -121.3628                0               0                0               0
1.69967                0.9523027       -25.35233      0.006582934       -125.1476                0               0                0               0
1.70627                0.9508662       -25.62197      0.006742258       -128.9147                0               0                0               0
1.71287                0.9493756       -25.89579      0.006903107       -132.6624                0               0                0               0
1.71947                0.9478294       -26.17385      0.007065848       -136.3894                0               0                0               0
1.72607                0.9462258       -26.45621      0.007230895       -140.0948                0               0                0               0
1.73267                0.9445636       -26.74294      0.007398722        -143.778                0               0                0               0
1.73927                0.9428409       -27.03411      0.007569846       -147.4389                0               0                0               0
1.74587                0.9410559       -27.32982      0.007744837       -151.0777                0               0                0               0
1.75248                0.9392071       -27.63014      0.007924307       -154.6951                0               0                0               0
1.75908                0.9372926       -27.93518      0.008108911       -158.2922                0               0                0               0
1.76568                0.9353105       -28.24504      0.008299336       -161.8705                0               0                0               0
1.77228                0.9332589       -28.55984      0.008496302       -165.4319                0               0                0               0
1.77888                0.9311352        -28.8797      0.008700547       -168.9787                0               0                0               0
1.78548                0.9289376       -29.20474      0.008912834       -172.5138                0               0                0               0
1.79208                0.9266632       -29.53512      0.009133919         -176.04                0               0                0               0
1.79868                0.9243094       -29.87096      0.009364567       -179.5609                0               0                0               0
1.80528                0.9218732       -30.21242      0.009605528        176.9201                0               0                0               0
1.81188                0.9193516       -30.55963      0.009857534        173.3992                0               0                0               0
1.81848                 0.916741       -30.91278       0.01012129        169.8723                0               0                0               0
1.82508                0.9140377         -31.272       0.01039745        166.3356                0               0                0               0
1.83168                0.9112379       -31.63745       0.01068664        162.7851                0               0                0               0
1.83828                0.9083374        -32.0093       0.01098944        159.2168                0               0                0               0
1.84488                0.9053317       -32.38769       0.01130634         155.627                0               0                0               0
1.85149                0.9022163       -32.77277       0.01163779         152.012                0               0                0               0
1.85809                0.8989859        -33.1647       0.01198417        148.3685                0               0                0               0
1.86469                0.8956354        -33.5636       0.01234576        144.6934                0               0                0               0
1.87129                0.8921594        -33.9696       0.01272281        140.9838                0               0                0               0
1.87789                0.8885521       -34.38282       0.01311546        137.2373                0               0                0               0
1.88449                 0.884808       -34.80339       0.01352379        133.4518                0               0                0               0
1.89109                0.8809204       -35.23138       0.01394777        129.6255                0               0                0               0
1.89769                0.8768833       -35.66688       0.01438735         125.757                0               0                0               0
1.90429                0.8726904       -36.10995       0.01484236        121.8451                0               0                0               0
1.91089                0.8683349       -36.56066       0.01531258        117.8891                0               0                0               0
1.91749                0.8638102       -37.01902        0.0157977        113.8886                0               0                0               0
1.92409                0.8591095       -37.48505       0.01629739        109.8432                0               0                0               0
1.93069                 0.854226       -37.95875       0.01681119        105.7532                0               0                0               0
1.93729                0.8491527       -38.44009       0.01733864        101.6189                0               0                0               0
1.94389                0.8438827       -38.92903        0.0178792        97.44065                0               0                0               0
1.9505                 0.8384091       -39.42547       0.01843227        93.21924                0               0                0               0
1.9571                  0.832725       -39.92934       0.01899721        88.95551                0               0                0               0
1.9637                 0.8268235        -40.4405       0.01957334        84.65042                0               0                0               0
1.9703                 0.8206979       -40.95881       0.02015991        80.30507                0               0                0               0
1.9769                 0.8143416       -41.48409       0.02075617        75.92063                0               0                0               0
1.9835                 0.8077478       -42.01613        0.0213613        71.49834                0               0                0               0
1.9901                 0.8009104       -42.55468       0.02197448        67.03951                0               0                0               0
1.9967                  0.793823       -43.09947       0.02259481        62.54547                0               0                0               0
2.0033                 0.7864798       -43.65017       0.02322142        58.01759                0               0                0               0
2.0099                 0.7788748       -44.20646       0.02385336        53.45724                0               0                0               0
2.0165                 0.7710027       -44.76792       0.02448971        48.86581                0               0                0               0
2.0231                 0.7628583       -45.33411       0.02512949        44.24469                0               0                0               0
2.0297                 0.7544368       -45.90454       0.02577173        39.59525                0               0                0               0
2.0363                 0.7457335       -46.47868       0.02641542        34.91885                0               0                0               0
2.0429                 0.7367446       -47.05591       0.02705956        30.21683                0               0                0               0
2.0495                 0.7274665       -47.63559       0.02770314         25.4905                0               0                0               0
2.05611                0.7178959       -48.21696       0.02834512        20.74116                0               0                0               0
2.06271                0.7080304       -48.79922       0.02898448        15.97008                0               0                0               0
2.06931                0.6978678       -49.38149       0.02962019        11.17849                0               0                0               0
2.07591                 0.687407       -49.96279       0.03025122        6.367601                0               0                0               0
2.08251                0.6766472       -50.54203       0.03087654        1.538584                0               0                0               0
2.08911                0.6655885       -51.11805       0.03149513       -3.307411                0               0                0               0
2.09571                0.6542316       -51.68951       0.03210598       -8.169264                0               0                0               0
2.10231                0.6425784       -52.25501       0.03270807       -13.04589                0               0                0               0
2.10891                0.6306314       -52.81295       0.03330041       -17.93623                0               0                0               0
2.11551                0.6183944        -53.3616       0.03388203       -22.83925                0               0                0               0
2.12211                0.6058718       -53.89906       0.03445197       -27.75396                0               0                0               0
2.12871                0.5930696       -54.42319       0.03500927       -32.67935                0               0                0               0
2.13531                0.5799945       -54.93167       0.03555303        -37.6145                0               0                0               0
2.14191                0.5666549       -55.42193       0.03608233       -42.55846                0               0                0               0
2.14851                0.5530603       -55.89111       0.03659631       -47.51031                0               0                0               0
2.15512                0.5392217       -56.33606       0.03709411       -52.46918                0               0                0               0
2.16172                0.5251514       -56.75328       0.03757492        -57.4342                0               0                0               0
2.16832                0.5108637       -57.13885       0.03803796        -62.4045                0               0                0               0
2.17492                0.4963743       -57.48847       0.03848247       -67.37926                0               0                0               0
2.18152                0.4817008       -57.79727       0.03890773       -72.35765                0               0                0               0
2.18812                0.4668629       -58.05987       0.03931307       -77.33886                0               0                0               0
2.19472                0.4518822        -58.2702       0.03969785        -82.3221                0               0                0               0
2.20132                0.4367827       -58.42149       0.04006146       -87.30659                0               0                0               0
2.20792                0.4215909       -58.50609       0.04040334       -92.29155                0               0                0               0
2.21452                0.4063362       -58.51542       0.04072298       -97.27621                0               0                0               0
2.22112                0.3910506       -58.43983       0.04101992       -102.2598                0               0                0               0
2.22772                0.3757698       -58.26838       0.04129372       -107.2416                0               0                0               0
2.23432                0.3605331       -57.98875       0.04154401       -112.2209                0               0                0               0
2.24092                0.3453843       -57.58705       0.04177047       -117.1969                0               0                0               0
2.24752                0.3303716       -57.04766       0.04197281       -122.1688                0               0                0               0
2.25413                 0.315549       -56.35298       0.04215081       -127.1359                0               0                0               0
2.26073                0.3009768       -55.48347        0.0423043       -132.0976                0               0                0               0
2.26733                0.2867222       -54.41746       0.04243316        -137.053                0               0                0               0
2.27393                0.2728607       -53.13127       0.04253731       -142.0014                0               0                0               0
2.28053                0.2594768       -51.59964       0.04261673       -146.9421                0               0                0               0
2.28713                0.2466651       -49.79628       0.04267147       -151.8744                0               0                0               0
2.29373                0.2345306       -47.69516       0.04270162       -156.7974                0               0                0               0