! TOUCHSTONE file generated by CST MICROWAVE STUDIO
! Date and time: Tue Mar 11 13:58:25 2025
! Project name: transverse.cst
! Parameters = {Fracture=1; B=12.5; D=160; F=25; Feed=2.85625; L=100; M=20; R=0.384908; S=2; Theta=270; length=57.125; wave=114.25}
! Header version: 2024
! Port assignment regex: !\s*Touchstone port\s*([0-9]+)\s*=\s*(CST MWS port|CST DES external port|CST DES block port)\s*(.+)\s* \(\"(.*)\"\)(\s*mode\s*([0-9]+))?.*
! Touchstone port assignment:
! Touchstone port 1 = CST MWS port 1 ("")
! Touchstone port 2 = CST MWS port 2 ("")
# GHz S MA R 50
1                      0.9976033       -9.991342     0.0004517724        176.2452                0               0                0               0
1.00658                0.9975352       -10.07899     0.0004532389        171.3966                0               0                0               0
1.01316                0.9974683       -10.16732     0.0004533849        166.6747                0               0                0               0
1.01974                0.9974024       -10.25636     0.0004522298         162.092                0               0                0               0
1.02632                0.9973371       -10.34616     0.0004498096        157.6628                0               0                0               0
1.03289                0.9972717       -10.43675     0.0004461785        153.4034                0               0                0               0
1.03947                0.9972057       -10.52817     0.0004414124        149.3325                0               0                0               0
1.04605                0.9971383       -10.62044     0.0004356117        145.4714                0               0                0               0
1.05263                0.9970688       -10.71359     0.0004289058        141.8435                0               0                0               0
1.05921                0.9969964       -10.80762     0.0004214567         138.475                0               0                0               0
1.06579                0.9969203       -10.90255     0.0004134647        135.3939                0               0                0               0
1.07237                0.9968399       -10.99838     0.0004051727        132.6289                0               0                0               0
1.07895                0.9967541       -11.09511     0.0003968712        130.2085                0               0                0               0
1.08553                0.9966625       -11.19271     0.0003889014        128.1575                0               0                0               0
1.09211                0.9965643       -11.29119     0.0003816558        126.4939                0               0                0               0
1.09868                 0.996459        -11.3905     0.0003755736        125.2238                0               0                0               0
1.10526                0.9963462       -11.49064     0.0003711299        124.3355                0               0                0               0
1.11184                0.9962252       -11.59157     0.0003688147        123.7944                0               0                0               0
1.11842                 0.996096       -11.69326     0.0003691036        123.5396                0               0                0               0
1.125                  0.9959584       -11.79568     0.0003724212        123.4848                0               0                0               0
1.13158                0.9958124       -11.89879     0.0003791043        123.5242                0               0                0               0
1.13816                 0.995658       -12.00258     0.0003893723        123.5434                0               0                0               0
1.14474                0.9954953         -12.107     0.0004033123        123.4328                0               0                0               0
1.15132                0.9953248       -12.21204     0.0004208823        123.0996                0               0                0               0
1.15789                0.9951467       -12.31766     0.0004419295        122.4753                0               0                0               0
1.16447                0.9949617       -12.42387     0.0004662176        121.5182                0               0                0               0
1.17105                  0.99477       -12.53064     0.0004934559        120.2107                0               0                0               0
1.17763                0.9945725       -12.63797     0.0005233253        118.5549                0               0                0               0
1.18421                0.9943696       -12.74588     0.0005554974        116.5664                0               0                0               0
1.19079                0.9941619       -12.85436     0.0005896481        114.2695                0               0                0               0
1.19737                0.9939502       -12.96343      0.000625465        111.6927                0               0                0               0
1.20395                 0.993735       -13.07312     0.0006626511        108.8662                0               0                0               0
1.21053                0.9935168       -13.18346      0.000700927        105.8194                0               0                0               0
1.21711                0.9932961       -13.29449     0.0007400297        102.5805                0               0                0               0
1.22368                0.9930733       -13.40624      0.000779712        99.17552                0               0                0               0
1.23026                0.9928486       -13.51877     0.0008197417        95.62802                0               0                0               0
1.23684                0.9926225       -13.63213     0.0008599001        91.95937                0               0                0               0
1.24342                0.9923946       -13.74637     0.0008999808        88.18877                0               0                0               0
1.25                   0.9921652       -13.86154     0.0009397893        84.33345                0               0                0               0
1.25658                 0.991934        -13.9777     0.0009791425        80.40892                0               0                0               0
1.26316                0.9917008        -14.0949      0.001017868        76.42918                0               0                0               0
1.26974                0.9914651        -14.2132      0.001055805        72.40697                0               0                0               0
1.27632                0.9912264       -14.33264      0.001092804         68.3539                0               0                0               0
1.28289                0.9909842       -14.45328      0.001128726        64.28068                0               0                0               0
1.28947                0.9907378       -14.57514      0.001163447        60.19728                0               0                0               0
1.29605                0.9904863       -14.69827      0.001196854        56.11303                0               0                0               0
1.30263                 0.990229       -14.82269      0.001228851        52.03676                0               0                0               0
1.30921                0.9899652       -14.94843      0.001259354        47.97691                0               0                0               0
1.31579                0.9896938        -15.0755        0.0012883        43.94159                0               0                0               0
1.32237                0.9894142       -15.20391      0.001315643        39.93868                0               0                0               0
1.32895                0.9891255       -15.33367      0.001341356        35.97584                0               0                0               0
1.33553                0.9888272       -15.46476      0.001365437        32.06061                0               0                0               0
1.34211                0.9885184       -15.59719      0.001387905        28.20037                0               0                0               0
1.34868                0.9881986       -15.73094      0.001408808        24.40237                0               0                0               0
1.35526                0.9878675         -15.866      0.001428219        20.67372                0               0                0               0
1.36184                0.9875246       -16.00234      0.001446246        17.02132                0               0                0               0
1.36842                0.9871697       -16.13995      0.001463024         13.4518                0               0                0               0
1.375                  0.9868028       -16.27881      0.001478726        9.971447                0               0                0               0
1.38158                0.9864238        -16.4189       0.00149356        6.586021                0               0                0               0
1.38816                 0.986033       -16.56021      0.001507771        3.300626                0               0                0               0
1.39474                0.9856305       -16.70273      0.001521641       0.1194911                0               0                0               0
1.40132                0.9852169       -16.84645      0.001535492       -2.954264                0               0                0               0
1.40789                0.9847925       -16.99138      0.001549681       -5.918889                0               0                0               0
1.41447                0.9843579       -17.13752        0.0015646       -8.774284                0               0                0               0
1.42105                0.9839138       -17.28489      0.001580673       -11.52227                0               0                0               0
1.42763                0.9834605       -17.43353      0.001598347       -14.16682                0               0                0               0
1.43421                0.9829989       -17.58347      0.001618089       -16.71427                0               0                0               0
1.44079                0.9825296       -17.73475      0.001640374        -19.1734                0               0                0               0
1.44737                0.9820531       -17.88743      0.001665677       -21.55543                0               0                0               0
1.45395                0.9815697       -18.04157      0.001694462       -23.87383                0               0                0               0
1.46053                0.9810801       -18.19726      0.001727167       -26.14403                0               0                0               0
1.46711                0.9805844       -18.35456      0.001764195       -28.38292                0               0                0               0
1.47368                0.9800828       -18.51357      0.001805902       -30.60834                0               0                0               0
1.48026                0.9795753       -18.67439      0.001852592       -32.83831                0               0                0               0
1.48684                0.9790615       -18.83712      0.001904503       -35.09045                0               0                0               0
1.49342                0.9785413       -19.00185      0.001961809       -37.38131                0               0                0               0
1.5                    0.9780141       -19.16869      0.002024617       -39.72576                0               0                0               0
1.50658                0.9774791       -19.33775      0.002092967       -42.13668                0               0                0               0
1.51316                0.9769355       -19.50913      0.002166836        -44.6246                0               0                0               0
1.51974                0.9763819       -19.68293      0.002246147       -47.19766                0               0                0               0
1.52632                0.9758174       -19.85924      0.002330768       -49.86158                0               0                0               0
1.53289                0.9752404       -20.03816      0.002420527       -52.61983                0               0                0               0
1.53947                0.9746494       -20.21977      0.002515212       -55.47382                0               0                0               0
1.54605                0.9740428       -20.40415      0.002614586       -58.42318                0               0                0               0
1.55263                0.9734189       -20.59135      0.002718385       -61.46607                0               0                0               0
1.55921                0.9727756       -20.78145       0.00282633       -64.59937                0               0                0               0
1.56579                0.9721115       -20.97449      0.002938131       -67.81907                0               0                0               0
1.57237                0.9714245        -21.1705      0.003053491        -71.1204                0               0                0               0
1.57895                0.9707129       -21.36951       0.00317211       -74.49813                0               0                0               0
1.58553                 0.969975       -21.57156      0.003293688       -77.94666                0               0                0               0
1.59211                0.9692089       -21.77665      0.003417933       -81.46023                0               0                0               0
1.59868                0.9684133       -21.98479      0.003544556       -85.03299                0               0                0               0
1.60526                0.9675867       -22.19598      0.003673279       -88.65911                0               0                0               0
1.61184                0.9667277       -22.41021      0.003803838       -92.33285                0               0                0               0
1.61842                0.9658351       -22.62749      0.003935981       -96.04861                0               0                0               0
1.625                   0.964908       -22.84781      0.004069474       -99.80095                0               0                0               0
1.63158                0.9639454       -23.07117      0.004204101       -103.5846                0               0                0               0
1.63816                0.9629469       -23.29757      0.004339667       -107.3946                0               0                0               0
1.64474                0.9619117         -23.527      0.004476001       -111.2261                0               0                0               0
1.65132                0.9608394       -23.75948      0.004612955       -115.0746                0               0                0               0
1.65789                0.9597297       -23.99505       0.00475041       -118.9357                0               0                0               0
1.66447                0.9585824       -24.23371      0.004888273       -122.8053                0               0                0               0
1.67105                0.9573975       -24.47551      0.005026487       -126.6796                0               0                0               0
1.67763                0.9561749       -24.72052      0.005165026       -130.5551                0               0                0               0
1.68421                0.9549142       -24.96879      0.005303896       -134.4283                0               0                0               0
1.69079                0.9536158       -25.22042      0.005443146       -138.2961                0               0                0               0
1.69737                0.9522791       -25.47549      0.005582859       -142.1559                0               0                0               0
1.70395                0.9509041       -25.73412      0.005723159        -146.005                0               0                0               0
1.71053                0.9494902       -25.99643      0.005864214       -149.8412                0               0                0               0
1.71711                0.9480371       -26.26257       0.00600623       -153.6625                0               0                0               0
1.72368                0.9465439       -26.53268       0.00614946       -157.4673                0               0                0               0
1.73026                0.9450098       -26.80694      0.006294197       -161.2543                0               0                0               0
1.73684                0.9434333       -27.08551       0.00644078       -165.0226                0               0                0               0
1.74342                0.9418133       -27.36858      0.006589587       -168.7715                0               0                0               0
1.75                   0.9401478       -27.65635      0.006741039       -172.5008                0               0                0               0
1.75658                0.9384349       -27.94901      0.006895592       -176.2107                0               0                0               0
1.76316                0.9366722       -28.24676       0.00705374       -179.9016                0               0                0               0
1.76974                0.9348569        -28.5498      0.007216009        176.4254                0               0                0               0
1.77632                0.9329862       -28.85834      0.007382955        172.7692                0               0                0               0
1.78289                0.9310567       -29.17258      0.007555152        169.1279                0               0                0               0
1.78947                 0.929065       -29.49271      0.007733196        165.4996                0               0                0               0
1.79605                0.9270072       -29.81893      0.007917693        161.8818                0               0                0               0
1.80263                0.9248791       -30.15142      0.008109254        158.2719                0               0                0               0
1.80921                0.9226767       -30.49037      0.008308489        154.6669                0               0                0               0
1.81579                0.9203952       -30.83593         0.008516        151.0635                0               0                0               0
1.82237                  0.91803       -31.18828      0.008732369        147.4583                0               0                0               0
1.82895                0.9155763       -31.54756      0.008958159        143.8479                0               0                0               0
1.83553                0.9130291       -31.91392      0.009193901        140.2286                0               0                0               0
1.84211                0.9103832       -32.28748       0.00944009        136.5968                0               0                0               0
1.84868                0.9076334       -32.66838      0.009697177         132.949                0               0                0               0
1.85526                0.9047747       -33.05673      0.009965569        129.2816                0               0                0               0
1.86184                0.9018014       -33.45264       0.01024561        125.5913                0               0                0               0
1.86842                0.8987083       -33.85622       0.01053761         121.875                0               0                0               0
1.875                    0.89549       -34.26754        0.0108418        118.1297                0               0                0               0
1.88158                0.8921409       -34.68673       0.01115834        114.3528                0               0                0               0
1.88816                0.8886557       -35.11386       0.01148736        110.5419                0               0                0               0
1.89474                0.8850288       -35.54902       0.01182891        106.6949                0               0                0               0
1.90132                0.8812544        -35.9923       0.01218296        102.8102                0               0                0               0
1.90789                 0.877327       -36.44379       0.01254944        98.88608                0               0                0               0
1.91447                0.8732408       -36.90359       0.01292822        94.92155                0               0                0               0
1.92105                0.8689899       -37.37176        0.0133191        90.91572                0               0                0               0
1.92763                0.8645681       -37.84841       0.01372181          86.868                0               0                0               0
1.93421                0.8599693       -38.33363       0.01413605        82.77808                0               0                0               0
1.94079                0.8551873       -38.82751       0.01456146        78.64588                0               0                0               0
1.94737                0.8502151       -39.33012       0.01499762        74.47157                0               0                0               0
1.95395                0.8450463       -39.84156       0.01544408        70.25548                0               0                0               0
1.96053                0.8396735        -40.3619       0.01590031        65.99814                0               0                0               0
1.96711                0.8340895       -40.89123       0.01636579        61.70025                0               0                0               0
1.97368                0.8282869       -41.42957       0.01683993         57.3626                0               0                0               0
1.98026                0.8222574       -41.97699        0.0173221        52.98613                0               0                0               0
1.98684                0.8159932        -42.5335       0.01781166        48.57187                0               0                0               0
1.99342                0.8094859        -43.0991       0.01830791        44.12091                0               0                0               0
2                      0.8027269       -43.67377       0.01881015         39.6344                0               0                0               0
2.00658                0.7957071       -44.25743       0.01931764        35.11357                0               0                0               0
2.01316                 0.788418       -44.84998       0.01982962        30.55966                0               0                0               0
2.01974                0.7808503       -45.45128       0.02034532        25.97391                0               0                0               0
2.02632                0.7729949        -46.0611       0.02086394        21.35763                0               0                0               0
2.03289                0.7648428        -46.6792       0.02138465         16.7121                0               0                0               0
2.03947                0.7563851       -47.30525       0.02190666        12.03858                0               0                0               0
2.04605                0.7476129       -47.93882        0.0224291        7.338379                0               0                0               0
2.05263                0.7385179       -48.57945       0.02295115        2.612742                0               0                0               0
2.05921                0.7290919       -49.22656       0.02347195       -2.137076                0               0                0               0
2.06579                0.7193273       -49.87946       0.02399064       -6.909845                0               0                0               0
2.07237                0.7092172       -50.53738       0.02450636       -11.70436                0               0                0               0
2.07895                0.6987551       -51.19942       0.02501827       -16.51943                0               0                0               0
2.08553                0.6879358       -51.86456       0.02552551        -21.3539                0               0                0               0
2.09211                0.6767547       -52.53162       0.02602721       -26.20664                0               0                0               0
2.09868                0.6652084       -53.19929       0.02652254       -31.07653                0               0                0               0
2.10526                0.6532948        -53.8661       0.02701066        -35.9625                0               0                0               0
2.11184                0.6410127       -54.53037       0.02749074       -40.86349                0               0                0               0
2.11842                0.6283628       -55.19024       0.02796196       -45.77847                0               0                0               0
2.125                  0.6153472       -55.84365       0.02842352       -50.70643                0               0                0               0
2.13158                0.6019694       -56.48826       0.02887463       -55.64639                0               0                0               0
2.13816                 0.588235       -57.12152       0.02931453       -60.59739                0               0                0               0
2.14474                0.5741512       -57.74053       0.02974246       -65.55851                0               0                0               0
2.15132                0.5597272        -58.3421       0.03015769       -70.52882                0               0                0               0
2.15789                0.5449742       -58.92263       0.03055951       -75.50743                0               0                0               0
2.16447                0.5299058       -59.47813       0.03094725       -80.49346                0               0                0               0
2.17105                0.5145375       -60.00413       0.03132024       -85.48606                0               0                0               0
2.17763                0.4988875       -60.49561       0.03167785       -90.48439                0               0                0               0
2.18421                0.4829761        -60.9469       0.03201948       -95.48762                0               0                0               0
2.19079                0.4668265       -61.35165       0.03234457       -100.4949                0               0                0               0
2.19737                0.4504646       -61.70263       0.03265257       -105.5055                0               0                0               0
2.20395                0.4339191       -61.99167       0.03294298       -110.5187                0               0                0               0
2.21053                0.4172219       -62.20945       0.03321534       -115.5335                0               0                0               0
2.21711                0.4004086       -62.34531        0.0334692       -120.5493                0               0                0               0
2.22368                0.3835183       -62.38701       0.03370417       -125.5653                0               0                0               0
2.23026                0.3665944       -62.32051       0.03391989       -130.5807                0               0                0               0
2.23684                0.3496853       -62.12959       0.03411604       -135.5949                0               0                0               0
2.24342                0.3328447        -61.7955       0.03429235        -140.607                0               0                0               0
2.25                   0.3161328       -61.29654       0.03444857       -145.6163                0               0                0               0
2.25658                0.2996175       -60.60763        0.0345845       -150.6221                0               0                0               0
2.26316                0.2833755       -59.69987           0.0347       -155.6236                0               0                0               0
2.26974                0.2674942       -58.54014       0.03479495       -160.6202                0               0                0               0
2.27632                0.2520738       -57.09093       0.03486928        -165.611                0               0                0               0
2.28289                0.2372295       -55.31059       0.03492298       -170.5953                0               0                0               0
2.28947                0.2230936       -53.15419       0.03495604       -175.5725                0               0                0               0