! TOUCHSTONE file generated by CST MICROWAVE STUDIO
! Date and time: Tue Mar 11 13:56:37 2025
! Project name: transverse.cst
! Parameters = {Fracture=1; B=10; D=160; F=15; Feed=2.85625; L=100; M=20; R=0.384908; S=2; Theta=90; length=57.125; wave=114.25}
! Header version: 2024
! Port assignment regex: !\s*Touchstone port\s*([0-9]+)\s*=\s*(CST MWS port|CST DES external port|CST DES block port)\s*(.+)\s* \(\"(.*)\"\)(\s*mode\s*([0-9]+))?.*
! Touchstone port assignment:
! Touchstone port 1 = CST MWS port 1 ("")
! Touchstone port 2 = CST MWS port 2 ("")
# GHz S MA R 50
1                      0.9977374       -9.986342     0.0003960781       -164.9684                0               0                0               0
1.00658                0.9976512        -10.0752     0.0003991197       -169.1507                0               0                0               0
1.01316                 0.997562       -10.16452     0.0004011932       -173.1987                0               0                0               0
1.01974                0.9974702       -10.25431     0.0004023392       -177.0991                0               0                0               0
1.02632                 0.997376       -10.34455     0.0004026161        179.1626                0               0                0               0
1.03289                0.9972797       -10.43528     0.0004021029        175.6019                0               0                0               0
1.03947                0.9971817        -10.5265     0.0004009011        172.2351                0               0                0               0
1.04605                0.9970822       -10.61822     0.0003991379        169.0792                0               0                0               0
1.05263                0.9969815       -10.71046     0.0003969683        166.1508                0               0                0               0
1.05921                0.9968798       -10.80326     0.0003945779        163.4659                0               0                0               0
1.06579                0.9967773       -10.89663     0.0003921841        161.0383                0               0                0               0
1.07237                 0.996674       -10.99061      0.000390037        158.8778                0               0                0               0
1.07895                0.9965702       -11.08522     0.0003884173        156.9885                0               0                0               0
1.08553                0.9964656       -11.18049     0.0003876326        155.3668                0               0                0               0
1.09211                0.9963603       -11.27647       0.00038801        153.9985                0               0                0               0
1.09868                0.9962542       -11.37317     0.0003898842        152.8578                0               0                0               0
1.10526                0.9961469       -11.47064     0.0003935834         151.906                0               0                0               0
1.11184                0.9960385        -11.5689     0.0003994116        151.0927                0               0                0               0
1.11842                0.9959283       -11.66798     0.0004076308        150.3584                0               0                0               0
1.125                  0.9958161        -11.7679     0.0004184462        149.6384                0               0                0               0
1.13158                0.9957014        -11.8687     0.0004319947        148.8685                0               0                0               0
1.13816                0.9955839       -11.97039     0.0004483412        147.9897                0               0                0               0
1.14474                 0.995463       -12.07299     0.0004674805        146.9528                0               0                0               0
1.15132                0.9953382       -12.17651     0.0004893452        145.7203                0               0                0               0
1.15789                0.9952091       -12.28096     0.0005138164        144.2678                0               0                0               0
1.16447                0.9950751       -12.38635     0.0005407367        142.5824                0               0                0               0
1.17105                0.9949357       -12.49268     0.0005699212        140.6615                0               0                0               0
1.17763                0.9947905       -12.59995     0.0006011681        138.5104                0               0                0               0
1.18421                0.9946393       -12.70816     0.0006342668        136.1401                0               0                0               0
1.19079                0.9944814        -12.8173     0.0006690033        133.5652                0               0                0               0
1.19737                0.9943168       -12.92736      0.000705165        130.8024                0               0                0               0
1.20395                0.9941451       -13.03834     0.0007425425        127.8694                0               0                0               0
1.21053                0.9939662       -13.15022     0.0007809324        124.7841                0               0                0               0
1.21711                  0.99378       -13.26299      0.000820137        121.5638                0               0                0               0
1.22368                0.9935864       -13.37665     0.0008599661        118.2251                0               0                0               0
1.23026                0.9933855       -13.49119     0.0009002364        114.7834                0               0                0               0
1.23684                0.9931773        -13.6066     0.0009407724        111.2533                0               0                0               0
1.24342                0.9929619       -13.72287     0.0009814061        107.6483                0               0                0               0
1.25                   0.9927397       -13.84002      0.001021978        103.9809                0               0                0               0
1.25658                0.9925108       -13.95803      0.001062336        100.2626                0               0                0               0
1.26316                0.9922754       -14.07693      0.001102339        96.50412                0               0                0               0
1.26974                0.9920339       -14.19671      0.001141853        92.71544                0               0                0               0
1.27632                0.9917865        -14.3174      0.001180756        88.90584                0               0                0               0
1.28289                0.9915335       -14.43901      0.001218937        85.08405                0               0                0               0
1.28947                0.9912751       -14.56158      0.001256298        81.25827                0               0                0               0
1.29605                0.9910116       -14.68513      0.001292752        77.43628                0               0                0               0
1.30263                0.9907431       -14.80969      0.001328229        73.62546                0               0                0               0
1.30921                0.9904699       -14.93529      0.001362675        69.83286                0               0                0               0
1.31579                0.9901917       -15.06199      0.001396051        66.06525                0               0                0               0
1.32237                0.9899088       -15.18981      0.001428339        62.32907                0               0                0               0
1.32895                0.9896212       -15.31881      0.001459542        58.63053                0               0                0               0
1.33553                0.9893286       -15.44902      0.001489684        54.97557                0               0                0               0
1.34211                0.9890309       -15.58049      0.001518813        51.36984                0               0                0               0
1.34868                0.9887276       -15.71327      0.001547002        47.81866                0               0                0               0
1.35526                0.9884187        -15.8474      0.001574351        44.32703                0               0                0               0
1.36184                0.9881035       -15.98292      0.001600989        40.89947                0               0                0               0
1.36842                0.9877816       -16.11988      0.001627072        37.54003                0               0                0               0
1.375                  0.9874526        -16.2583      0.001652789        34.25217                0               0                0               0
1.38158                0.9871157       -16.39823      0.001678357        31.03861                0               0                0               0
1.38816                0.9867707        -16.5397      0.001704023        27.90127                0               0                0               0
1.39474                0.9864165       -16.68273      0.001730066         24.8411                0               0                0               0
1.40132                0.9860529       -16.82735      0.001756789        21.85797                0               0                0               0
1.40789                0.9856791       -16.97358      0.001784521        18.95053                0               0                0               0
1.41447                0.9852947       -17.12145      0.001813615        16.11614                0               0                0               0
1.42105                 0.984899       -17.27096      0.001844438        13.35076                0               0                0               0
1.42763                0.9844915       -17.42213       0.00187737        10.64895                0               0                0               0
1.43421                0.9840719       -17.57498      0.001912795        8.003872                0               0                0               0
1.44079                0.9836397       -17.72953      0.001951096        5.407385                0               0                0               0
1.44737                0.9831946       -17.88577      0.001992648         2.85018                0               0                0               0
1.45395                0.9827364       -18.04372      0.002037806       0.3220031                0               0                0               0
1.46053                0.9822647        -18.2034      0.002086903       -2.188089                0               0                0               0
1.46711                0.9817796       -18.36483       0.00214024        -4.69141                0               0                0               0
1.47368                0.9812811       -18.52803      0.002198079       -7.199319                0               0                0               0
1.48026                0.9807687       -18.69302      0.002260643       -9.722887                0               0                0               0
1.48684                0.9802429       -18.85983      0.002328106       -12.27257                0               0                0               0
1.49342                0.9797035       -19.02849      0.002400599       -14.85796                0               0                0               0
1.5                    0.9791504       -19.19905        0.0024782       -17.48753                0               0                0               0
1.50658                 0.978584       -19.37156      0.002560945       -20.16853                0               0                0               0
1.51316                0.9780041       -19.54607      0.002648822       -22.90683                0               0                0               0
1.51974                0.9774107       -19.72264      0.002741779       -25.70695                0               0                0               0
1.52632                0.9768039       -19.90133      0.002839725       -28.57206                0               0                0               0
1.53289                0.9761833       -20.08222      0.002942537       -31.50405                0               0                0               0
1.53947                0.9755489        -20.2654      0.003050061       -34.50365                0               0                0               0
1.54605                0.9749003       -20.45095      0.003162119       -37.57055                0               0                0               0
1.55263                0.9742369       -20.63896      0.003278512       -40.70352                0               0                0               0
1.55921                0.9735585       -20.82952      0.003399028       -43.90057                0               0                0               0
1.56579                0.9728642       -21.02274      0.003523439        -47.1591                0               0                0               0
1.57237                0.9721531       -21.21872      0.003651513       -50.47599                0               0                0               0
1.57895                0.9714245       -21.41755      0.003783011       -53.84774                0               0                0               0
1.58553                0.9706768       -21.61935      0.003917696       -57.27056                0               0                0               0
1.59211                 0.969909       -21.82421      0.004055329       -60.74046                0               0                0               0
1.59868                0.9691197       -22.03224      0.004195682       -64.25334                0               0                0               0
1.60526                0.9683072       -22.24354      0.004338533       -67.80503                0               0                0               0
1.61184                0.9674697       -22.45819      0.004483671       -71.39137                0               0                0               0
1.61842                0.9666057       -22.67629      0.004630899        -75.0082                0               0                0               0
1.625                  0.9657129       -22.89793      0.004780039       -78.65148                0               0                0               0
1.63158                0.9647895       -23.12319      0.004930931       -82.31722                0               0                0               0
1.63816                0.9638335       -23.35213      0.005083437       -86.00158                0               0                0               0
1.64474                0.9628425       -23.58482      0.005237443       -89.70087                0               0                0               0
1.65132                0.9618146       -23.82133      0.005392865       -93.41154                0               0                0               0
1.65789                0.9607474       -24.06172      0.005549645       -97.13022                0               0                0               0
1.66447                0.9596389       -24.30602      0.005707759       -100.8537                0               0                0               0
1.67105                0.9584868       -24.55429      0.005867218       -104.5791                0               0                0               0
1.67763                0.9572891       -24.80656      0.006028069       -108.3035                0               0                0               0
1.68421                0.9560436       -25.06287      0.006190395       -112.0244                0               0                0               0
1.69079                0.9547483       -25.32325      0.006354323       -115.7396                0               0                0               0
1.69737                0.9534014       -25.58774      0.006520019       -119.4469                0               0                0               0
1.70395                0.9520007       -25.85637      0.006687693       -123.1446                0               0                0               0
1.71053                0.9505447       -26.12916      0.006857601       -126.8312                0               0                0               0
1.71711                0.9490314       -26.40616      0.007030039       -130.5054                0               0                0               0
1.72368                0.9474593        -26.6874      0.007205351       -134.1664                0               0                0               0
1.73026                0.9458264       -26.97292      0.007383922       -137.8135                0               0                0               0
1.73684                0.9441314       -27.26277      0.007566182       -141.4465                0               0                0               0
1.74342                0.9423725       -27.55702        0.0077526       -145.0654                0               0                0               0
1.75                   0.9405483       -27.85572      0.007943685       -148.6708                0               0                0               0
1.75658                 0.938657       -28.15893      0.008139977       -152.2633                0               0                0               0
1.76316                0.9366968       -28.46675       0.00834205        -155.844                0               0                0               0
1.76974                0.9346663       -28.77927      0.008550509       -159.4144                0               0                0               0
1.77632                0.9325633       -29.09659      0.008765969       -162.9763                0               0                0               0
1.78289                 0.930386        -29.4188      0.008989072       -166.5316                0               0                0               0
1.78947                0.9281322       -29.74604      0.009220462       -170.0827                0               0                0               0
1.79605                0.9257995       -30.07844      0.009460792       -173.6322                0               0                0               0
1.80263                0.9233855       -30.41612      0.009710701       -177.1828                0               0                0               0
1.80921                0.9208874       -30.75924      0.009970824        179.2626                0               0                0               0
1.81579                0.9183022       -31.10793       0.01024178        175.7009                0               0                0               0
1.82237                0.9156265       -31.46236       0.01052414         172.129                0               0                0               0
1.82895                0.9128569       -31.82267       0.01081848        168.5438                0               0                0               0
1.83553                0.9099895       -32.18904       0.01112531        164.9422                0               0                0               0
1.84211                0.9070201        -32.5616        0.0114451        161.3211                0               0                0               0
1.84868                0.9039444       -32.94051       0.01177827        157.6776                0               0                0               0
1.85526                0.9007576       -33.32593       0.01212518         154.009                0               0                0               0
1.86184                0.8974546       -33.71798       0.01248615        150.3126                0               0                0               0
1.86842                0.8940302       -34.11681       0.01286143        146.5862                0               0                0               0
1.875                  0.8904788       -34.52254       0.01325119        142.8274                0               0                0               0
1.88158                0.8867944       -34.93527       0.01365555        139.0346                0               0                0               0
1.88816                0.8829712       -35.35509       0.01407457         135.206                0               0                0               0
1.89474                0.8790029       -35.78209       0.01450824        131.3402                0               0                0               0
1.90132                 0.874883       -36.21632       0.01495646        127.4363                0               0                0               0
1.90789                 0.870605       -36.65781       0.01541911        123.4934                0               0                0               0
1.91447                0.8661623       -37.10659       0.01589596        119.5108                0               0                0               0
1.92105                0.8615479       -37.56264       0.01638675        115.4882                0               0                0               0
1.92763                0.8567554       -38.02594       0.01689115        111.4255                0               0                0               0
1.93421                0.8517777       -38.49643       0.01740877        107.3228                0               0                0               0
1.94079                0.8466082       -38.97402       0.01793918        103.1803                0               0                0               0
1.94737                0.8412402       -39.45862       0.01848187        98.99842                0               0                0               0
1.95395                0.8356671       -39.95007       0.01903629        94.77771                0               0                0               0
1.96053                0.8298823       -40.44822       0.01960186        90.51888                0               0                0               0
1.96711                0.8238795       -40.95287       0.02017794        86.22273                0               0                0               0
1.97368                0.8176529        -41.4638       0.02076386        81.89016                0               0                0               0
1.98026                0.8111962       -41.98076       0.02135888        77.52215                0               0                0               0
1.98684                0.8045041       -42.50345       0.02196225        73.11973                0               0                0               0
1.99342                0.7975709       -43.03156        0.0225732          68.684                0               0                0               0
2                      0.7903919       -43.56473       0.02319089         64.2161                0               0                0               0
2.00658                0.7829621       -44.10257       0.02381448        59.71718                0               0                0               0
2.01316                0.7752772       -44.64465        0.0244431        55.18843                0               0                0               0
2.01974                0.7673331       -45.19053       0.02507585        50.63104                0               0                0               0
2.02632                0.7591261       -45.73968        0.0257118        46.04622                0               0                0               0
2.03289                0.7506532       -46.29157       0.02635003        41.43517                0               0                0               0
2.03947                0.7419112       -46.84558       0.02698957        36.79909                0               0                0               0
2.04605                0.7328981       -47.40107       0.02762946        32.13916                0               0                0               0
2.05263                0.7236119       -47.95736       0.02826873        27.45654                0               0                0               0
2.05921                0.7140509       -48.51367       0.02890639        22.75241                0               0                0               0
2.06579                0.7042145       -49.06917       0.02954145        18.02791                0               0                0               0
2.07237                0.6941024       -49.62298       0.03017291        13.28414                0               0                0               0
2.07895                0.6837145       -50.17412       0.03079977        8.522218                0               0                0               0
2.08553                 0.673052       -50.72155       0.03142105        3.743215                0               0                0               0
2.09211                 0.662116       -51.26409       0.03203575       -1.051811                0               0                0               0
2.09868                0.6509088        -51.8005       0.03264288       -5.861825                0               0                0               0
2.10526                0.6394332       -52.32941       0.03324147       -10.68581                0               0                0               0
2.11184                0.6276929       -52.84932       0.03383055       -15.52279                0               0                0               0
2.11842                0.6156921       -53.35859       0.03440916       -20.37178                0               0                0               0
2.125                  0.6034363       -53.85543       0.03497638       -25.23185                0               0                0               0
2.13158                0.5909314       -54.33786       0.03553127       -30.10206                0               0                0               0
2.13816                0.5781847       -54.80372       0.03607295       -34.98149                0               0                0               0
2.14474                0.5652042       -55.25062       0.03660053       -39.86927                0               0                0               0
2.15132                0.5519993       -55.67593       0.03711315       -44.76451                0               0                0               0
2.15789                0.5385804       -56.07673       0.03760999       -49.66637                0               0                0               0
2.16447                0.5249591       -56.44984       0.03809026         -54.574                0               0                0               0
2.17105                0.5111485       -56.79167       0.03855318       -59.48658                0               0                0               0
2.17763                0.4971631       -57.09827       0.03899801       -64.40328                0               0                0               0
2.18421                 0.483019       -57.36528       0.03942407       -69.32331                0               0                0               0
2.19079                0.4687338       -57.58778       0.03983068       -74.24589                0               0                0               0
2.19737                0.4543272       -57.76035       0.04021721       -79.17022                0               0                0               0
2.20395                0.4398208       -57.87689       0.04058309       -84.09554                0               0                0               0
2.21053                0.4252382       -57.93062       0.04092776       -89.02109                0               0                0               0
2.21711                0.4106055       -57.91391       0.04125072       -93.94611                0               0                0               0
2.22368                0.3959517       -57.81826       0.04155153       -98.86985                0               0                0               0
2.23026                0.3813082       -57.63411       0.04182976       -103.7916                0               0                0               0
2.23684                0.3667101       -57.35079       0.04208507       -108.7105                0               0                0               0
2.24342                 0.352196       -56.95631       0.04231711        -113.626                0               0                0               0
2.25                   0.3378088       -56.43733       0.04252564       -118.5373                0               0                0               0
2.25658                0.3235955         -55.779       0.04271043       -123.4436                0               0                0               0
2.26316                 0.309609       -54.96487       0.04287133       -128.3442                0               0                0               0
2.26974                0.2959078       -53.97692       0.04300822       -133.2384                0               0                0               0
2.27632                 0.282557       -52.79563       0.04312105       -138.1254                0               0                0               0
2.28289                 0.269629       -51.40024       0.04320979       -143.0046                0               0                0               0
2.28947                0.2572044       -49.76921        0.0432745       -147.8752                0               0                0               0