! TOUCHSTONE file generated by CST MICROWAVE STUDIO
! Date and time: Tue Mar 11 13:56:46 2025
! Project name: transverse.cst
! Parameters = {Fracture=5; B=12.5; D=160; F=5; Feed=2.85625; L=100; M=10; R=0.384908; S=2; Theta=90; length=57.125; wave=114.25}
! Header version: 2024
! Port assignment regex: !\s*Touchstone port\s*([0-9]+)\s*=\s*(CST MWS port|CST DES external port|CST DES block port)\s*(.+)\s* \(\"(.*)\"\)(\s*mode\s*([0-9]+))?.*
! Touchstone port assignment:
! Touchstone port 1 = CST MWS port 1 ("")
! Touchstone port 2 = CST MWS port 2 ("")
# GHz S MA R 50
1                      0.9978509       -9.751865     0.0002735013       -125.5927                0               0                0               0
1.0066                 0.9977662       -9.840815     0.0002937599       -129.8328                0               0                0               0
1.0132                 0.9976751       -9.930195     0.0003134262       -134.1943                0               0                0               0
1.0198                 0.9975779       -10.01997     0.0003323746       -138.6424                0               0                0               0
1.0264                 0.9974752       -10.11011     0.0003504867       -143.1495                0               0                0               0
1.033                  0.9973676       -10.20059     0.0003676508        -147.693                0               0                0               0
1.0396                 0.9972563        -10.2914     0.0003837619       -152.2536                0               0                0               0
1.0462                  0.997142       -10.38254     0.0003987214       -156.8147                0               0                0               0
1.05281                0.9970255         -10.474     0.0004124379       -161.3613                0               0                0               0
1.05941                0.9969075        -10.5658     0.0004248283       -165.8793                0               0                0               0
1.06601                0.9967893       -10.65796     0.0004358183       -170.3551                0               0                0               0
1.07261                0.9966716       -10.75052     0.0004453436       -174.7756                0               0                0               0
1.07921                0.9965551       -10.84351     0.0004533515       -179.1269                0               0                0               0
1.08581                0.9964405       -10.93699     0.0004598023        176.6051                0               0                0               0
1.09241                0.9963284       -11.03101     0.0004646715        172.4356                0               0                0               0
1.09901                0.9962192       -11.12564     0.0004679519        168.3811                0               0                0               0
1.10561                0.9961131       -11.22095     0.0004696564        164.4596                0               0                0               0
1.11221                0.9960101       -11.31699      0.000469821        160.6911                0               0                0               0
1.11881                0.9959105       -11.41385     0.0004685092        157.0977                0               0                0               0
1.12541                0.9958138        -11.5116     0.0004658159        153.7042                0               0                0               0
1.13201                0.9957193       -11.61031     0.0004618732        150.5376                0               0                0               0
1.13861                0.9956269       -11.71004     0.0004568568        147.6277                0               0                0               0
1.14521                0.9955355       -11.81086     0.0004509925        145.0063                0               0                0               0
1.15182                0.9954444       -11.91282      0.000444564        142.7065                0               0                0               0
1.15842                0.9953526       -12.01597     0.0004379201        140.7605                0               0                0               0
1.16502                0.9952588       -12.12035     0.0004314808        139.1972                0               0                0               0
1.17162                0.9951621       -12.22599     0.0004257396        138.0374                0               0                0               0
1.17822                0.9950611        -12.3329     0.0004212599        137.2888                0               0                0               0
1.18482                0.9949546       -12.44111     0.0004186615        136.9386                0               0                0               0
1.19142                0.9948415       -12.55061     0.0004185941        136.9481                0               0                0               0
1.19802                0.9947207        -12.6614     0.0004216986        137.2487                0               0                0               0
1.20462                0.9945908       -12.77344     0.0004285565        137.7436                0               0                0               0
1.21122                0.9944512       -12.88672     0.0004396404        138.3152                0               0                0               0
1.21782                0.9943011       -13.00119     0.0004552735        138.8389                0               0                0               0
1.22442                0.9941395       -13.11683     0.0004756095        139.1983                0               0                0               0
1.23102                 0.993966       -13.23359     0.0005006386        139.2982                0               0                0               0
1.23762                0.9937805       -13.35142     0.0005302118         139.072                0               0                0               0
1.24422                0.9935825       -13.47027     0.0005640776        138.4831                0               0                0               0
1.25083                 0.993372        -13.5901     0.0006019187        137.5205                0               0                0               0
1.25743                0.9931495       -13.71086     0.0006433849        136.1929                0               0                0               0
1.26403                0.9929151       -13.83251     0.0006881157        134.5221                0               0                0               0
1.27063                0.9926696       -13.95503     0.0007357563        132.5373                0               0                0               0
1.27723                0.9924132       -14.07838     0.0007859662        130.2711                0               0                0               0
1.28383                0.9921472       -14.20255     0.0008384247        127.7566                0               0                0               0
1.29043                0.9918722       -14.32753      0.000892831        125.0254                0               0                0               0
1.29703                 0.991589       -14.45332     0.0009489045        122.1073                0               0                0               0
1.30363                0.9912987       -14.57995      0.001006385        119.0291                0               0                0               0
1.31023                0.9910024       -14.70744      0.001065029        115.8151                0               0                0               0
1.31683                0.9907005       -14.83583      0.001124613        112.4869                0               0                0               0
1.32343                0.9903944       -14.96516      0.001184928        109.0639                0               0                0               0
1.33003                0.9900845       -15.09552      0.001245782        105.5632                0               0                0               0
1.33663                0.9897715       -15.22695         0.001307        102.0001                0               0                0               0
1.34323                0.9894559       -15.35954      0.001368422        98.38807                0               0                0               0
1.34984                0.9891378       -15.49338      0.001429907        94.73937                0               0                0               0
1.35644                0.9888174       -15.62856      0.001491328        91.06488                0               0                0               0
1.36304                0.9884945       -15.76518      0.001552581        87.37441                0               0                0               0
1.36964                0.9881687       -15.90333      0.001613577        83.67681                0               0                0               0
1.37624                0.9878397        -16.0431      0.001674252        79.98009                0               0                0               0
1.38284                0.9875064       -16.18458      0.001734561        76.29148                0               0                0               0
1.38944                0.9871681       -16.32788      0.001794485        72.61756                0               0                0               0
1.39604                0.9868232       -16.47306      0.001854028        68.96423                0               0                0               0
1.40264                0.9864709       -16.62021      0.001913222         65.3368                0               0                0               0
1.40924                0.9861096       -16.76939      0.001972124        61.73999                0               0                0               0
1.41584                0.9857375       -16.92065      0.002030823        58.17794                0               0                0               0
1.42244                0.9853532       -17.07404      0.002089434        54.65418                0               0                0               0
1.42904                0.9849549       -17.22959      0.002148105        51.17165                0               0                0               0
1.43564                0.9845409       -17.38731      0.002207013        47.73266                0               0                0               0
1.44224                0.9841097       -17.54723      0.002266365        44.33885                0               0                0               0
1.44884                0.9836596       -17.70933      0.002326399        40.99118                0               0                0               0
1.45545                 0.983189       -17.87359      0.002387379        37.68987                0               0                0               0
1.46205                0.9826968       -18.04001      0.002449598        34.43442                0               0                0               0
1.46865                0.9821815       -18.20853       0.00251337        31.22354                0               0                0               0
1.47525                0.9816423       -18.37914      0.002579033         28.0552                0               0                0               0
1.48185                0.9810783       -18.55179       0.00264694        24.92658                0               0                0               0
1.48845                0.9804887       -18.72643      0.002717455        21.83416                0               0                0               0
1.49505                0.9798737       -18.90302      0.002790955        18.77371                0               0                0               0
1.50165                0.9792323       -19.08152      0.002867813        15.74041                0               0                0               0
1.50825                0.9785652       -19.26189      0.002948403        12.72891                0               0                0               0
1.51485                0.9778724       -19.44411      0.003033088        9.733442                0               0                0               0
1.52145                 0.977154       -19.62816      0.003122214        6.747963                0               0                0               0
1.52805                0.9764109       -19.81402      0.003216112        3.766275                0               0                0               0
1.53465                0.9756437        -20.0017      0.003315082       0.7821706                0               0                0               0
1.54125                0.9748532       -20.19122      0.003419398       -2.210432                0               0                0               0
1.54785                  0.97404       -20.38261      0.003529299       -5.217355                0               0                0               0
1.55446                 0.973205       -20.57592      0.003644991        -8.24404                0               0                0               0
1.56106                0.9723491       -20.77122       0.00376664       -11.29546                0               0                0               0
1.56766                0.9714728       -20.96857      0.003894371       -14.37602                0               0                0               0
1.57426                0.9705766       -21.16809      0.004028277       -17.48952                0               0                0               0
1.58086                0.9696611       -21.36989      0.004168407       -20.63912                0               0                0               0
1.58746                0.9687262       -21.57408      0.004314775       -23.82731                0               0                0               0
1.59406                0.9677721        -21.7808      0.004467363       -27.05594                0               0                0               0
1.60066                0.9667983        -21.9902      0.004626118       -30.32622                0               0                0               0
1.60726                0.9658044       -22.20244       0.00479096       -33.63879                0               0                0               0
1.61386                0.9647892       -22.41766       0.00496178       -36.99373                0               0                0               0
1.62046                0.9637515       -22.63604       0.00513845       -40.39062                0               0                0               0
1.62706                0.9626897       -22.85773      0.005320819       -43.82864                0               0                0               0
1.63366                0.9616019       -23.08288      0.005508726       -47.30657                0               0                0               0
1.64026                0.9604861       -23.31166      0.005701993       -50.82287                0               0                0               0
1.64686                0.9593396       -23.54421      0.005900436       -54.37575                0               0                0               0
1.65347                0.9581598       -23.78065      0.006103865       -57.96319                0               0                0               0
1.66007                0.9569435        -24.0211       0.00631209       -61.58303                0               0                0               0
1.66667                0.9556877       -24.26568      0.006524921       -65.23298                0               0                0               0
1.67327                0.9543889       -24.51448      0.006742177       -68.91066                0               0                0               0
1.67987                0.9530438       -24.76756      0.006963681       -72.61366                0               0                0               0
1.68647                 0.951649       -25.02498       0.00718927       -76.33952                0               0                0               0
1.69307                0.9502008       -25.28679      0.007418796       -80.08585                0               0                0               0
1.69967                 0.948696       -25.55299      0.007652128       -83.85024                0               0                0               0
1.70627                 0.947131        -25.8236      0.007889155       -87.63036                0               0                0               0
1.71287                0.9455027        -26.0986      0.008129791       -91.42397                0               0                0               0
1.71947                0.9438079       -26.37798      0.008373973       -95.22889                0               0                0               0
1.72607                 0.942044        -26.6617       0.00862167       -99.04307                0               0                0               0
1.73267                 0.940208       -26.94971      0.008872874       -102.8646                0               0                0               0
1.73927                0.9382978       -27.24196      0.009127618       -106.6916                0               0                0               0
1.74587                0.9363112       -27.53841      0.009385962       -110.5224                0               0                0               0
1.75248                0.9342462         -27.839      0.009648008       -114.3556                0               0                0               0
1.75908                0.9321014       -28.14369      0.009913889       -118.1897                0               0                0               0
1.76568                0.9298754       -28.45242       0.01018378       -122.0236                0               0                0               0
1.77228                0.9275672       -28.76517       0.01045789       -125.8563                0               0                0               0
1.77888                0.9251758       -29.08192       0.01073646       -129.6869                0               0                0               0
1.78548                0.9227003       -29.40267       0.01101979       -133.5148                0               0                0               0
1.79208                0.9201403       -29.72742       0.01130821       -137.3395                0               0                0               0
1.79868                 0.917495       -30.05622       0.01160206       -141.1608                0               0                0               0
1.80528                 0.914764       -30.38911       0.01190174       -144.9786                0               0                0               0
1.81188                0.9119467       -30.72618       0.01220768       -148.7929                0               0                0               0
1.81848                0.9090422       -31.06751       0.01252033       -152.6042                0               0                0               0
1.82508                0.9060499       -31.41325       0.01284018       -156.4128                0               0                0               0
1.83168                0.9029683       -31.76352       0.01316771       -160.2195                0               0                0               0
1.83828                0.8997961        -32.1185       0.01350346       -164.0252                0               0                0               0
1.84488                0.8965315       -32.47837       0.01384794       -167.8307                0               0                0               0
1.85149                0.8931724       -32.84333       0.01420171       -171.6373                0               0                0               0
1.85809                0.8897158       -33.21361        0.0145653       -175.4462                0               0                0               0
1.86469                0.8861588       -33.58941       0.01493924       -179.2589                0               0                0               0
1.87129                0.8824977       -33.97099       0.01532407        176.9233                0               0                0               0
1.87789                0.8787283       -34.35856       0.01572029        173.0986                0               0                0               0
1.88449                0.8748459       -34.75235       0.01612839        169.2656                0               0                0               0
1.89109                 0.870845       -35.15261       0.01654885        165.4225                0               0                0               0
1.89769                0.8667199       -35.55952       0.01698207        161.5678                0               0                0               0
1.90429                0.8624645       -35.97329       0.01742848        157.6996                0               0                0               0
1.91089                0.8580717       -36.39408        0.0178884        153.8165                0               0                0               0
1.91749                0.8535346       -36.82204       0.01836213        149.9167                0               0                0               0
1.92409                0.8488454       -37.25729       0.01884993        145.9989                0               0                0               0
1.93069                0.8439966       -37.69989         0.019352        142.0615                0               0                0               0
1.93729                0.8389799       -38.14989       0.01986845        138.1033                0               0                0               0
1.94389                0.8337873       -38.60727       0.02039937        134.1229                0               0                0               0
1.9505                 0.8284104       -39.07198       0.02094476        130.1192                0               0                0               0
1.9571                 0.8228413       -39.54393       0.02150456        126.0913                0               0                0               0
1.9637                 0.8170716       -40.02295       0.02207866        122.0383                0               0                0               0
1.9703                 0.8110936       -40.50886       0.02266685        117.9593                0               0                0               0
1.9769                 0.8048998       -41.00138       0.02326888        113.8539                0               0                0               0
1.9835                 0.7984828       -41.50022       0.02388443        109.7214                0               0                0               0
1.9901                 0.7918362       -42.00501       0.02451311        105.5616                0               0                0               0
1.9967                 0.7849536       -42.51534       0.02515446        101.3742                0               0                0               0
2.0033                 0.7778292       -43.03074       0.02580796        97.15909                0               0                0               0
2.0099                 0.7704585       -43.55071       0.02647304        92.91625                0               0                0               0
2.0165                 0.7628369       -44.07469       0.02714906        88.64577                0               0                0               0
2.0231                 0.7549609       -44.60206       0.02783533        84.34786                0               0                0               0
2.0297                  0.746828       -45.13218       0.02853109        80.02278                0               0                0               0
2.0363                 0.7384361       -45.66436       0.02923556        75.67092                0               0                0               0
2.0429                 0.7297841       -46.19785       0.02994788         71.2927                0               0                0               0
2.0495                 0.7208715       -46.73189       0.03066716        66.88862                0               0                0               0
2.05611                0.7116989       -47.26568       0.03139248        62.45927                0               0                0               0
2.06271                0.7022675       -47.79837       0.03212285        58.00525                0               0                0               0
2.06931                0.6925792       -48.32908       0.03285727        53.52723                0               0                0               0
2.07591                0.6826366       -48.85688        0.0335947        49.02591                0               0                0               0
2.08251                 0.672443       -49.38085       0.03433406        44.50202                0               0                0               0
2.08911                0.6620022       -49.89997       0.03507428        39.95634                0               0                0               0
2.09571                 0.651319       -50.41324       0.03581421        35.38964                0               0                0               0
2.10231                 0.640398       -50.91958       0.03655274        30.80275                0               0                0               0
2.10891                 0.629245       -51.41785       0.03728871        26.19646                0               0                0               0
2.11551                0.6178655        -51.9069       0.03802095        21.57163                0               0                0               0
2.12211                0.6062658       -52.38547       0.03874829        16.92908                0               0                0               0
2.12871                0.5944525       -52.85225       0.03946955        12.26967                0               0                0               0
2.13531                0.5824322       -53.30585       0.04018356        7.594232                0               0                0               0
2.14191                 0.570212       -53.74476       0.04088912        2.903627                0               0                0               0
2.14851                 0.557799       -54.16734       0.04158509       -1.801303                0               0                0               0
2.15512                0.5452007       -54.57185       0.04227027       -6.519715                0               0                0               0
2.16172                0.5324246       -54.95636       0.04294353       -11.25077                0               0                0               0
2.16832                0.5194787       -55.31872       0.04360371       -15.99363                0               0                0               0
2.17492                0.5063708        -55.6566       0.04424969       -20.74747                0               0                0               0
2.18152                0.4931095       -55.96736       0.04488037       -25.51146                0               0                0               0
2.18812                0.4797034       -56.24807       0.04549467       -30.28479                0               0                0               0
2.19472                0.4661618       -56.49539       0.04609153       -35.06665                0               0                0               0
2.20132                0.4524945       -56.70561       0.04666994       -39.85624                0               0                0               0
2.20792                0.4387121       -56.87445        0.0472289       -44.65276                0               0                0               0
2.21452                0.4248261       -56.99706       0.04776744       -49.45544                0               0                0               0
2.22112                 0.410849       -57.06788       0.04828466       -54.26347                0               0                0               0
2.22772                0.3967951       -57.08055       0.04877968        -59.0761                0               0                0               0
2.23432                0.3826798       -57.02774       0.04925165       -63.89255                0               0                0               0
2.24092                0.3685211       -56.90098       0.04969977       -68.71207                0               0                0               0
2.24752                0.3543394        -56.6905       0.05012331       -73.53389                0               0                0               0
2.25413                 0.340158       -56.38499       0.05052157       -78.35727                0               0                0               0
2.26073                0.3260038       -55.97133        0.0508939       -83.18145                0               0                0               0
2.26733                0.3119083       -55.43429       0.05123971        -88.0057                0               0                0               0
2.27393                0.2979082       -54.75626       0.05155847       -92.82928                0               0                0               0
2.28053                0.2840467        -53.9168        0.0518497       -97.65145                0               0                0               0
2.28713                0.2703744       -52.89237       0.05211296       -102.4715                0               0                0               0
2.29373                0.2569514       -51.65601        0.0523479       -107.2886                0               0                0               0