! TOUCHSTONE file generated by CST MICROWAVE STUDIO
! Date and time: Tue Mar 11 13:56:31 2025
! Project name: transverse.cst
! Parameters = {Fracture=1; B=10; D=160; F=5; Feed=2.85625; L=100; M=20; R=0.384908; S=1; Theta=90; length=57.125; wave=114.25}
! Header version: 2024
! Port assignment regex: !\s*Touchstone port\s*([0-9]+)\s*=\s*(CST MWS port|CST DES external port|CST DES block port)\s*(.+)\s* \(\"(.*)\"\)(\s*mode\s*([0-9]+))?.*
! Touchstone port assignment:
! Touchstone port 1 = CST MWS port 1 ("")
! Touchstone port 2 = CST MWS port 2 ("")
# GHz S MA R 50
1                      0.9979073       -9.998471     0.0003278129       -116.3377                0               0                0               0
1.00658                0.9978089       -10.08922     0.0003531412        -121.788                0               0                0               0
1.01316                0.9977023       -10.18027     0.0003777633       -127.2189                0               0                0               0
1.01974                 0.997588       -10.27157     0.0004015628       -132.6236                0               0                0               0
1.02632                0.9974674       -10.36309     0.0004244253       -137.9962                0               0                0               0
1.03289                0.9973413       -10.45479     0.0004462392       -143.3312                0               0                0               0
1.03947                0.9972108       -10.54666      0.000466897       -148.6233                0               0                0               0
1.04605                0.9970776       -10.63868     0.0004862959       -153.8673                0               0                0               0
1.05263                0.9969424       -10.73087     0.0005043382       -159.0578                0               0                0               0
1.05921                 0.996807       -10.82324     0.0005209337       -164.1891                0               0                0               0
1.06579                0.9966724       -10.91582     0.0005359993       -169.2551                0               0                0               0
1.07237                0.9965399       -11.00866     0.0005494611       -174.2492                0               0                0               0
1.07895                0.9964105       -11.10183      0.000561256       -179.1642                0               0                0               0
1.08553                 0.996285       -11.19537     0.0005713322        176.0078                0               0                0               0
1.09211                0.9961644       -11.28938     0.0005796518        171.2759                0               0                0               0
1.09868                0.9960489       -11.38393     0.0005861923        166.6499                0               0                0               0
1.10526                 0.995939       -11.47911     0.0005909488         162.141                0               0                0               0
1.11184                0.9958349       -11.57502     0.0005939364        157.7616                0               0                0               0
1.11842                0.9957363       -11.67174      0.000595193        153.5258                0               0                0               0
1.125                   0.995643       -11.76938      0.000594783        149.4492                0               0                0               0
1.13158                0.9955541       -11.86801     0.0005928002        145.5491                0               0                0               0
1.13816                 0.995469       -11.96772     0.0005893725        141.8446                0               0                0               0
1.14474                0.9953866       -12.06858     0.0005846668        138.3567                0               0                0               0
1.15132                0.9953057       -12.17067     0.0005788937        135.1077                0               0                0               0
1.15789                 0.995225       -12.27404     0.0005723133        132.1206                0               0                0               0
1.16447                 0.995143       -12.37872     0.0005652403        129.4186                0               0                0               0
1.17105                0.9950585       -12.48475     0.0005580486        127.0231                0               0                0               0
1.17763                0.9949695       -12.59215     0.0005511729        124.9519                0               0                0               0
1.18421                0.9948747       -12.70092     0.0005451086        123.2158                0               0                0               0
1.19079                0.9947726       -12.81104     0.0005404044        121.8154                0               0                0               0
1.19737                0.9946618       -12.92251     0.0005376483        120.7371                0               0                0               0
1.20395                 0.994541       -13.03528     0.0005374438        119.9495                0               0                0               0
1.21053                0.9944092        -13.1493     0.0005403783        119.4022                0               0                0               0
1.21711                0.9942652       -13.26453     0.0005469841         119.026                0               0                0               0
1.22368                0.9941085       -13.38091     0.0005576997         118.738                0               0                0               0
1.23026                0.9939384       -13.49836     0.0005728372        118.4483                0               0                0               0
1.23684                0.9937549       -13.61684     0.0005925629        118.0694                0               0                0               0
1.24342                0.9935577       -13.73626     0.0006168957        117.5246                0               0                0               0
1.25                    0.993347       -13.85656     0.0006457197        116.7538                0               0                0               0
1.25658                0.9931236       -13.97769     0.0006788096        115.7164                0               0                0               0
1.26316                0.9928879        -14.0996      0.000715859        114.3904                0               0                0               0
1.26974                0.9926407       -14.22223     0.0007565088        112.7702                0               0                0               0
1.27632                0.9923831       -14.34556     0.0008003717        110.8625                0               0                0               0
1.28289                0.9921164       -14.46957     0.0008470497        108.6827                0               0                0               0
1.28947                0.9918414       -14.59424     0.0008961465        106.2515                0               0                0               0
1.29605                0.9915599        -14.7196     0.0009472766        103.5922                0               0                0               0
1.30263                0.9912729       -14.84567      0.001000068        100.7294                0               0                0               0
1.30921                0.9909819       -14.97247      0.001054166        97.68683                0               0                0               0
1.31579                0.9906881       -15.10007      0.001109233        94.48752                0               0                0               0
1.32237                0.9903923       -15.22854      0.001164948         91.1529                0               0                0               0
1.32895                0.9900957       -15.35796       0.00122101        87.70276                0               0                0               0
1.33553                0.9897991       -15.48841      0.001277133        84.15527                0               0                0               0
1.34211                0.9895029          -15.62      0.001333047        80.52703                0               0                0               0
1.34868                0.9892074       -15.75285      0.001388501        76.83318                0               0                0               0
1.35526                0.9889129       -15.88706      0.001443259        73.08758                0               0                0               0
1.36184                0.9886189       -16.02276      0.001497105        69.30296                0               0                0               0
1.36842                0.9883248       -16.16006      0.001549838        65.49104                0               0                0               0
1.375                    0.98803       -16.29908      0.001601281        61.66272                0               0                0               0
1.38158                0.9877334       -16.43993      0.001651274        57.82813                0               0                0               0
1.38816                0.9874337       -16.58272      0.001699682        53.99682                0               0                0               0
1.39474                0.9871293       -16.72754      0.001746393        50.17779                0               0                0               0
1.40132                0.9868186       -16.87448      0.001791322        46.37961                0               0                0               0
1.40789                0.9864996        -17.0236      0.001834413        42.61047                0               0                0               0
1.41447                0.9861703       -17.17496      0.001875639         38.8782                0               0                0               0
1.42105                0.9858286        -17.3286      0.001915008        35.19032                0               0                0               0
1.42763                0.9854727       -17.48455      0.001952562        31.55404                0               0                0               0
1.43421                0.9851001       -17.64281      0.001988384        27.97626                0               0                0               0
1.44079                0.9847092       -17.80338      0.002022596         24.4635                0               0                0               0
1.44737                0.9842977       -17.96624      0.002055362         21.0219                0               0                0               0
1.45395                0.9838643       -18.13135      0.002086895        17.65708                0               0                0               0
1.46053                0.9834071       -18.29868      0.002117451        14.37407                0               0                0               0
1.46711                 0.982925       -18.46815      0.002147336        11.17716                0               0                0               0
1.47368                0.9824167       -18.63973      0.002176906        8.069761                0               0                0               0
1.48026                0.9818815       -18.81333      0.002206561        5.054239                0               0                0               0
1.48684                0.9813189        -18.9889      0.002236751        2.131699                0               0                0               0
1.49342                0.9807285       -19.16636      0.002267966      -0.6981659                0               0                0               0
1.5                    0.9801103       -19.34566      0.002300737       -3.437269                0               0                0               0
1.50658                0.9794649       -19.52674      0.002335623       -6.089263                0               0                0               0
1.51316                0.9787925       -19.70956      0.002373208       -8.659644                0               0                0               0
1.51974                0.9780939       -19.89409      0.002414089       -11.15578                0               0                0               0
1.52632                0.9773701        -20.0803      0.002458862       -13.58683                0               0                0               0
1.53289                0.9766219       -20.26821      0.002508113       -15.96365                0               0                0               0
1.53947                0.9758507       -20.45781      0.002562404       -18.29847                0               0                0               0
1.54605                0.9750575       -20.64916       0.00262226       -20.60461                0               0                0               0
1.55263                0.9742435       -20.84231      0.002688154       -22.89604                0               0                0               0
1.55921                0.9734097       -21.03732      0.002760504       -25.18689                0               0                0               0
1.56579                0.9725571        -21.2343      0.002839656       -27.49103                0               0                0               0
1.57237                0.9716863       -21.43336      0.002925887       -29.82156                0               0                0               0
1.57895                0.9707982       -21.63463      0.003019398       -32.19045                0               0                0               0
1.58553                0.9698928       -21.83825      0.003120313       -34.60822                0               0                0               0
1.59211                  0.96897       -22.04438      0.003228687       -37.08373                0               0                0               0
1.59868                0.9680296       -22.25318      0.003344506       -39.62402                0               0                0               0
1.60526                0.9670706       -22.46483      0.003467696       -42.23435                0               0                0               0
1.61184                0.9660922       -22.67951       0.00359813       -44.91823                0               0                0               0
1.61842                0.9650927       -22.89739      0.003735635       -47.67753                0               0                0               0
1.625                  0.9640702       -23.11865      0.003880004       -50.51266                0               0                0               0
1.63158                0.9630224       -23.34345      0.004030999       -53.42279                0               0                0               0
1.63816                0.9619467       -23.57195      0.004188364       -56.40598                0               0                0               0
1.64474                0.9608402       -23.80431      0.004351829       -59.45946                0               0                0               0
1.65132                0.9596996       -24.04063      0.004521118       -62.57975                0               0                0               0
1.65789                0.9585217       -24.28104      0.004695958       -65.76288                0               0                0               0
1.66447                0.9573025       -24.52564      0.004876079       -69.00453                0               0                0               0
1.67105                0.9560385       -24.77449      0.005061225       -72.30012                0               0                0               0
1.67763                0.9547258       -25.02764      0.005251157       -75.64498                0               0                0               0
1.68421                0.9533606       -25.28512      0.005445655       -79.03441                0               0                0               0
1.69079                 0.951939       -25.54693      0.005644526       -82.46375                0               0                0               0
1.69737                0.9504575       -25.81306      0.005847606       -85.92846                0               0                0               0
1.70395                0.9489125       -26.08348      0.006054763       -89.42414                0               0                0               0
1.71053                0.9473008       -26.35813      0.006265903       -92.94661                0               0                0               0
1.71711                0.9456195       -26.63695      0.006480971       -96.49191                0               0                0               0
1.72368                0.9438656       -26.91985      0.006699951       -100.0563                0               0                0               0
1.73026                0.9420369       -27.20675      0.006922875       -103.6364                0               0                0               0
1.73684                0.9401315       -27.49756      0.007149822       -107.2291                0               0                0               0
1.74342                0.9381474       -27.79219      0.007380919       -110.8315                0               0                0               0
1.75                   0.9360837       -28.09054      0.007616341       -114.4411                0               0                0               0
1.75658                0.9339392       -28.39253      0.007856319       -118.0556                0               0                0               0
1.76316                0.9317134       -28.69809      0.008101133       -121.6734                0               0                0               0
1.76974                 0.929406       -29.00715      0.008351115       -125.2927                0               0                0               0
1.77632                0.9270168       -29.31969       0.00860665       -128.9126                0               0                0               0
1.78289                0.9245458       -29.63567      0.008868172        -132.532                0               0                0               0
1.78947                0.9219934       -29.95511      0.009136163       -136.1506                0               0                0               0
1.79605                0.9193599       -30.27802       0.00941115       -139.7683                0               0                0               0
1.80263                0.9166455       -30.60448      0.009693703       -143.3851                0               0                0               0
1.80921                0.9138504       -30.93457       0.00998443       -147.0016                0               0                0               0
1.81579                0.9109748       -31.26839       0.01028397       -150.6186                0               0                0               0
1.82237                0.9080185        -31.6061       0.01059299       -154.2373                0               0                0               0
1.82895                0.9049809       -31.94787       0.01091218       -157.8589                0               0                0               0
1.83553                0.9018612       -32.29388       0.01124225       -161.4852                0               0                0               0
1.84211                0.8986582       -32.64436       0.01158389       -165.1178                0               0                0               0
1.84868                0.8953699       -32.99955       0.01193782       -168.7589                0               0                0               0
1.85526                0.8919942       -33.35968       0.01230474       -172.4105                0               0                0               0
1.86184                0.8885281       -33.72504       0.01268533       -176.0749                0               0                0               0
1.86842                0.8849678       -34.09588       0.01308026       -179.7543                0               0                0               0
1.875                  0.8813095       -34.47248       0.01349014        176.5489                0               0                0               0
1.88158                0.8775483        -34.8551       0.01391557        172.8324                0               0                0               0
1.88816                0.8736787       -35.24398       0.01435708         169.094                0               0                0               0
1.89474                0.8696949       -35.63937       0.01481518        165.3314                0               0                0               0
1.90132                0.8655902       -36.04149       0.01529028        161.5428                0               0                0               0
1.90789                0.8613577       -36.45051       0.01578277         157.726                0               0                0               0
1.91447                  0.85699        -36.8666       0.01629294        153.8794                0               0                0               0
1.92105                0.8524791       -37.28988       0.01682101        150.0014                0               0                0               0
1.92763                0.8478172       -37.72041       0.01736717        146.0906                0               0                0               0
1.93421                0.8429958       -38.15823       0.01793147        142.1458                0               0                0               0
1.94079                0.8380066       -38.60334       0.01851394         138.166                0               0                0               0
1.94737                0.8328414       -39.05564        0.0191145        134.1504                0               0                0               0
1.95395                0.8274917       -39.51505       0.01973301        130.0984                0               0                0               0
1.96053                0.8219496       -39.98137       0.02036924        126.0096                0               0                0               0
1.96711                0.8162071       -40.45439       0.02102288        121.8839                0               0                0               0
1.97368                0.8102571       -40.93383       0.02169357         117.721                0               0                0               0
1.98026                0.8040925       -41.41936       0.02238086        113.5212                0               0                0               0
1.98684                 0.797707        -41.9106       0.02308423        109.2848                0               0                0               0
1.99342                0.7910948       -42.40713        0.0238031         105.012                0               0                0               0
2                      0.7842507       -42.90847        0.0245368        100.7034                0               0                0               0
2.00658                0.7771707        -43.4141       0.02528464        96.35966                0               0                0               0
2.01316                0.7698507       -43.92348       0.02604582        91.98145                0               0                0               0
2.01974                0.7622883       -44.43601       0.02681952        87.56956                0               0                0               0
2.02632                0.7544811       -44.95106       0.02760484        83.12485                0               0                0               0
2.03289                0.7464281       -45.46798       0.02840085        78.64824                0               0                0               0
2.03947                0.7381289        -45.9861       0.02920656        74.14067                0               0                0               0
2.04605                0.7295836       -46.50471       0.03002093        69.60317                0               0                0               0
2.05263                0.7207932       -47.02309       0.03084289        65.03673                0               0                0               0
2.05921                0.7117596       -47.54049       0.03167131        60.44243                0               0                0               0
2.06579                0.7024849       -48.05617       0.03250506         55.8213                0               0                0               0
2.07237                0.6929722       -48.56936       0.03334294        51.17444                0               0                0               0
2.07895                0.6832247       -49.07926       0.03418374        46.50289                0               0                0               0
2.08553                0.6732463       -49.58507       0.03502622        41.80775                0               0                0               0
2.09211                0.6630411       -50.08598       0.03586913        37.09006                0               0                0               0
2.09868                0.6526137       -50.58116       0.03671117         32.3509                0               0                0               0
2.10526                0.6419686       -51.06972       0.03755106        27.59132                0               0                0               0
2.11184                0.6311108        -51.5508       0.03838748        22.81233                0               0                0               0
2.11842                0.6200452       -52.02345       0.03921911        18.01497                0               0                0               0
2.125                  0.6087766       -52.48669       0.04004464        13.20024                0               0                0               0
2.13158                0.5973101       -52.93949       0.04086272        8.369117                0               0                0               0
2.13816                0.5856507       -53.38072       0.04167203        3.522579                0               0                0               0
2.14474                0.5738031       -53.80919       0.04247126       -1.338423                0               0                0               0
2.15132                0.5617723       -54.22359       0.04325908       -6.212957                0               0                0               0
2.15789                0.5495628       -54.62246       0.04403419       -11.10011                0               0                0               0
2.16447                0.5371798        -55.0042        0.0447953       -15.99898                0               0                0               0
2.17105                0.5246277       -55.36703       0.04554112       -20.90868                0               0                0               0
2.17763                0.5119117       -55.70893       0.04627043       -25.82836                0               0                0               0
2.18421                0.4990367       -56.02761       0.04698196       -30.75717                0               0                0               0
2.19079                0.4860083       -56.32049       0.04767453       -35.69427                0               0                0               0
2.19737                0.4728321       -56.58462       0.04834695       -40.63886                0               0                0               0
2.20395                0.4595148       -56.81661       0.04899809       -45.59011                0               0                0               0
2.21053                0.4460633       -57.01262       0.04962684       -50.54726                0               0                0               0
2.21711                0.4324861       -57.16819       0.05023212       -55.50952                0               0                0               0
2.22368                0.4187923        -57.2782       0.05081293       -60.47613                0               0                0               0
2.23026                0.4049931       -57.33675       0.05136825       -65.44633                0               0                0               0
2.23684                0.3911012       -57.33703       0.05189717       -70.41937                0               0                0               0
2.24342                0.3771315       -57.27113       0.05239878       -75.39453                0               0                0               0
2.25                   0.3631015       -57.12995       0.05287226       -80.37107                0               0                0               0
2.25658                0.3490321       -56.90287       0.05331682       -85.34828                0               0                0               0
2.26316                0.3349475       -56.57759       0.05373174       -90.32543                0               0                0               0
2.26974                0.3208766       -56.13983       0.05411633       -95.30181                0               0                0               0
2.27632                0.3068536       -55.57302       0.05446999       -100.2767                0               0                0               0
2.28289                0.2929185       -54.85791       0.05479217       -105.2495                0               0                0               0
2.28947                0.2791192       -53.97226       0.05508239       -110.2193                0               0                0               0