! TOUCHSTONE file generated by CST MICROWAVE STUDIO
! Date and time: Tue Mar 11 13:56:45 2025
! Project name: transverse.cst
! Parameters = {Fracture=1; B=12.5; D=160; F=5; Feed=2.85625; L=100; M=10; R=0.384908; S=1; Theta=90; length=57.125; wave=114.25}
! Header version: 2024
! Port assignment regex: !\s*Touchstone port\s*([0-9]+)\s*=\s*(CST MWS port|CST DES external port|CST DES block port)\s*(.+)\s* \(\"(.*)\"\)(\s*mode\s*([0-9]+))?.*
! Touchstone port assignment:
! Touchstone port 1 = CST MWS port 1 ("")
! Touchstone port 2 = CST MWS port 2 ("")
# GHz S MA R 50
1                      0.9978912       -10.00564     0.0002852927       -122.0725                0               0                0               0
1.00658                0.9978043       -10.09615      0.000308032       -126.9044                0               0                0               0
1.01316                0.9977099       -10.18705     0.0003300307       -131.8199                0               0                0               0
1.01974                0.9976086       -10.27829     0.0003511591       -136.7925                0               0                0               0
1.02632                0.9975009       -10.36984     0.0003712914       -141.8012                0               0                0               0
1.03289                0.9973878       -10.46165     0.0003903065       -146.8294                0               0                0               0
1.03947                0.9972704       -10.55372     0.0004080874       -151.8629                0               0                0               0
1.04605                0.9971498       -10.64602     0.0004245221       -156.8899                0               0                0               0
1.05263                0.9970269       -10.73857     0.0004395041       -161.8994                0               0                0               0
1.05921                 0.996903       -10.83136      0.000452933       -166.8812                0               0                0               0
1.06579                0.9967791       -10.92443     0.0004647154       -171.8257                0               0                0               0
1.07237                0.9966564       -11.01781     0.0004747658       -176.7228                0               0                0               0
1.07895                0.9965358       -11.11156     0.0004830076        178.4374                0               0                0               0
1.08553                0.9964182       -11.20571     0.0004893746        173.6659                0               0                0               0
1.09211                0.9963044       -11.30035     0.0004938124        168.9745                0               0                0               0
1.09868                0.9961949       -11.39554     0.0004962795        164.3764                0               0                0               0
1.10526                  0.99609       -11.49136     0.0004967503        159.8863                0               0                0               0
1.11184                0.9959901       -11.58791     0.0004952164        155.5214                0               0                0               0
1.11842                0.9958951       -11.68526     0.0004916905        151.3014                0               0                0               0
1.125                  0.9958046       -11.78349     0.0004862093        147.2497                0               0                0               0
1.13158                0.9957183       -11.88271     0.0004788386        143.3934                0               0                0               0
1.13816                0.9956355       -11.98298      0.000469679         139.765                0               0                0               0
1.14474                0.9955554       -12.08438     0.0004588729        136.4027                0               0                0               0
1.15132                0.9954768       -12.18698     0.0004466148        133.3518                0               0                0               0
1.15789                0.9953987       -12.29085     0.0004331627        130.6654                0               0                0               0
1.16447                0.9953197       -12.39602     0.0004188533        128.4045                0               0                0               0
1.17105                0.9952383       -12.50254     0.0004041199        126.6372                0               0                0               0
1.17763                0.9951533       -12.61043     0.0003895117        125.4355                0               0                0               0
1.18421                0.9950631        -12.7197      0.000375712        124.8677                0               0                0               0
1.19079                0.9949661       -12.83037     0.0003635472        124.9854                0               0                0               0
1.19737                 0.994861       -12.94241     0.0003539763        125.8032                0               0                0               0
1.20395                0.9947464        -13.0558     0.0003480435        127.2742                0               0                0               0
1.21053                0.9946213       -13.17051     0.0003467844        129.2692                0               0                0               0
1.21711                0.9944844        -13.2865      0.000351091        131.5748                0               0                0               0
1.22368                0.9943349       -13.40371     0.0003615733        133.9212                0               0                0               0
1.23026                 0.994172        -13.5221     0.0003784713        136.0348                0               0                0               0
1.23684                0.9939953       -13.64159     0.0004016557        137.6927                0               0                0               0
1.24342                0.9938045       -13.76213      0.000430709        138.7544                0               0                0               0
1.25                   0.9935996       -13.88366     0.0004650406        139.1635                0               0                0               0
1.25658                0.9933807       -14.00611     0.0005039938        138.9283                0               0                0               0
1.26316                0.9931482       -14.12943      0.000546918        138.0972                0               0                0               0
1.26974                0.9929027       -14.25357     0.0005932079         136.738                0               0                0               0
1.27632                0.9926449       -14.37849     0.0006423187        134.9232                0               0                0               0
1.28289                0.9923758       -14.50416      0.000693767        132.7223                0               0                0               0
1.28947                0.9920964       -14.63056     0.0007471247        130.1983                0               0                0               0
1.29605                0.9918079       -14.75769     0.0008020115        127.4061                0               0                0               0
1.30263                0.9915113       -14.88555     0.0008580873        124.3928                0               0                0               0
1.30921                0.9912079       -15.01416     0.0009150456        121.1986                0               0                0               0
1.31579                0.9908988       -15.14356     0.0009726092        117.8575                0               0                0               0
1.32237                0.9905853       -15.27381      0.001030525        114.3987                0               0                0               0
1.32895                0.9902681       -15.40495      0.001088564        110.8467                0               0                0               0
1.33553                0.9899482       -15.53707      0.001146516         107.223                0               0                0               0
1.34211                0.9896262       -15.67025      0.001204193        103.5458                0               0                0               0
1.34868                0.9893028       -15.80459      0.001261428        99.83135                0               0                0               0
1.35526                0.9889779       -15.94018      0.001318072        96.09368                0               0                0               0
1.36184                0.9886516       -16.07714         0.001374        92.34538                0               0                0               0
1.36842                0.9883239       -16.21557       0.00142911         88.5977                0               0                0               0
1.375                   0.987994       -16.35558      0.001483325        84.86076                0               0                0               0
1.38158                0.9876613       -16.49728      0.001536593        81.14376                0               0                0               0
1.38816                0.9873247       -16.64076      0.001588891        77.45505                0               0                0               0
1.39474                0.9869831       -16.78613      0.001640228        73.80225                0               0                0               0
1.40132                0.9866349       -16.93348      0.001690645        70.19228                0               0                0               0
1.40789                0.9862786       -17.08287      0.001740217        66.63139                0               0                0               0
1.41447                0.9859125       -17.23438      0.001789058        63.12514                0               0                0               0
1.42105                0.9855345       -17.38805      0.001837318         59.6784                0               0                0               0
1.42763                0.9851428       -17.54392      0.001885188        56.29527                0               0                0               0
1.43421                0.9847355       -17.70202      0.001932901        52.97904                0               0                0               0
1.44079                0.9843106       -17.86234      0.001980729        49.73207                0               0                0               0
1.44737                0.9838663       -18.02489      0.002028987        46.55573                0               0                0               0
1.45395                0.9834007       -18.18964      0.002078028         43.4503                0               0                0               0
1.46053                0.9829122       -18.35657      0.002128243        40.41486                0               0                0               0
1.46711                0.9823995       -18.52562      0.002180055        37.44727                0               0                0               0
1.47368                0.9818612       -18.69675      0.002233917        34.54403                0               0                0               0
1.48026                0.9812965        -18.8699      0.002290303        31.70036                0               0                0               0
1.48684                0.9807044         -19.045      0.002349705        28.91018                0               0                0               0
1.49342                0.9800846         -19.222       0.00241262         26.1662                0               0                0               0
1.5                    0.9794367       -19.40084      0.002479545        23.46005                0               0                0               0
1.50658                0.9787609       -19.58144      0.002550966        20.78248                0               0                0               0
1.51316                0.9780575       -19.76377      0.002627348        18.12359                0               0                0               0
1.51974                0.9773269       -19.94778      0.002709129        15.47311                0               0                0               0
1.52632                0.9765698       -20.13344      0.002796708        12.82067                0               0                0               0
1.53289                0.9757872       -20.32074      0.002890441        10.15611                0               0                0               0
1.53947                0.9749801       -20.50966      0.002990635        7.469749                0               0                0               0
1.54605                0.9741496       -20.70024      0.003097544        4.752662                0               0                0               0
1.55263                0.9732968        -20.8925      0.003211367         1.99684                0               0                0               0
1.55921                0.9724229        -21.0865      0.003332245       -0.804638                0               0                0               0
1.56579                0.9715288       -21.28231      0.003460266       -3.657511                0               0                0               0
1.57237                0.9706157       -21.48003      0.003595466       -6.566304                0               0                0               0
1.57895                0.9696842       -21.67976       0.00373783       -9.534336                0               0                0               0
1.58553                0.9687351       -21.88162      0.003887299       -12.56377                0               0                0               0
1.59211                0.9677684       -22.08577      0.004043773       -15.65569                0               0                0               0
1.59868                0.9667844       -22.29234      0.004207116       -18.81023                0               0                0               0
1.60526                0.9657827       -22.50151      0.004377162       -22.02666                0               0                0               0
1.61184                0.9647626       -22.71344       0.00455372       -25.30352                0               0                0               0
1.61842                0.9637231       -22.92832      0.004736577       -28.63877                0               0                0               0
1.625                  0.9626628       -23.14631      0.004925503       -32.02984                0               0                0               0
1.63158                0.9615801       -23.36759      0.005120262       -35.47381                0               0                0               0
1.63816                0.9604728       -23.59233      0.005320606       -38.96746                0               0                0               0
1.64474                0.9593383       -23.82068      0.005526288       -42.50735                0               0                0               0
1.65132                0.9581741        -24.0528      0.005737061       -46.08993                0               0                0               0
1.65789                0.9569766       -24.28882      0.005952683       -49.71158                0               0                0               0
1.66447                0.9557433       -24.52885      0.006172924       -53.36865                0               0                0               0
1.67105                  0.95447         -24.773      0.006397563       -57.05754                0               0                0               0
1.67763                0.9531535       -25.02134      0.006626397       -60.77467                0               0                0               0
1.68421                  0.95179       -25.27393      0.006859245       -64.51661                0               0                0               0
1.69079                0.9503757       -25.53082      0.007095944       -68.27999                0               0                0               0
1.69737                0.9489071         -25.792      0.007336362       -72.06161                0               0                0               0
1.70395                0.9473805       -26.05748      0.007580392       -75.85841                0               0                0               0
1.71053                0.9457926       -26.32725      0.007827961        -79.6675                0               0                0               0
1.71711                0.9441401       -26.60124      0.008079031       -83.48616                0               0                0               0
1.72368                  0.94242       -26.87942      0.008333599       -87.31186                0               0                0               0
1.73026                0.9406297       -27.16171      0.008591704       -91.14228                0               0                0               0
1.73684                0.9387668       -27.44805      0.008853426       -94.97528                0               0                0               0
1.74342                0.9368292       -27.73834      0.009118887       -98.80896                0               0                0               0
1.75                   0.9348154       -28.03251      0.009388258       -102.6416                0               0                0               0
1.75658                0.9327239       -28.33048      0.009661751       -106.4718                0               0                0               0
1.76316                0.9305537       -28.63218      0.009939628       -110.2982                0               0                0               0
1.76974                0.9283041       -28.93754        0.0102222       -114.1199                0               0                0               0
1.77632                0.9259749       -29.24651       0.01050981       -117.9361                0               0                0               0
1.78289                0.9235657       -29.55906       0.01080288       -121.7463                0               0                0               0
1.78947                0.9210767       -29.87519       0.01110183       -125.5502                0               0                0               0
1.79605                0.9185079       -30.19491       0.01140717       -129.3479                0               0                0               0
1.80263                0.9158598       -30.51827       0.01171941       -133.1394                0               0                0               0
1.80921                0.9131325       -30.84531       0.01203913       -136.9254                0               0                0               0
1.81579                0.9103261       -31.17616        0.0123669       -140.7064                0               0                0               0
1.82237                0.9074408       -31.51092       0.01270336       -144.4834                0               0                0               0
1.82895                0.9044764       -31.84977       0.01304915       -148.2576                0               0                0               0
1.83553                 0.901432       -32.19289       0.01340492       -152.0302                0               0                0               0
1.84211                0.8983072       -32.54047       0.01377136       -155.8028                0               0                0               0
1.84868                0.8951004       -32.89278       0.01414911        -159.577                0               0                0               0
1.85526                0.8918097       -33.25005       0.01453886       -163.3546                0               0                0               0
1.86184                0.8884328       -33.61256       0.01494126       -167.1375                0               0                0               0
1.86842                0.8849667       -33.98061       0.01535694       -170.9277                0               0                0               0
1.875                  0.8814076       -34.35447       0.01578652       -174.7272                0               0                0               0
1.88158                0.8777513       -34.73446       0.01623056       -178.5381                0               0                0               0
1.88816                0.8739927       -35.12088       0.01668962        177.6375                0               0                0               0
1.89474                0.8701264       -35.51399       0.01716418        173.7978                0               0                0               0
1.90132                 0.866146       -35.91408       0.01765467        169.9406                0               0                0               0
1.90789                0.8620447        -36.3214       0.01816148        166.0641                0               0                0               0
1.91447                 0.857815       -36.73617       0.01868492        162.1664                0               0                0               0
1.92105                 0.853449       -37.15859       0.01922525         158.246                0               0                0               0
1.92763                0.8489385        -37.5888       0.01978264        154.3012                0               0                0               0
1.93421                0.8442748       -38.02694        0.0203572        150.3308                0               0                0               0
1.94079                0.8394489       -38.47306       0.02094897        146.3333                0               0                0               0
1.94737                0.8344516       -38.92718       0.02155789        142.3078                0               0                0               0
1.95395                0.8292741       -39.38928       0.02218385        138.2533                0               0                0               0
1.96053                 0.823907       -39.85927       0.02282665        134.1692                0               0                0               0
1.96711                0.8183414         -40.337         0.023486        130.0547                0               0                0               0
1.97368                0.8125686       -40.82228       0.02416156        125.9094                0               0                0               0
1.98026                0.8065801       -41.31484       0.02485289        121.7331                0               0                0               0
1.98684                0.8003681       -41.81437       0.02555949        117.5257                0               0                0               0
1.99342                0.7939252       -42.32051       0.02628079         113.287                0               0                0               0
2                      0.7872444       -42.83282       0.02701614        109.0174                0               0                0               0
2.00658                0.7803196       -43.35083       0.02776483        104.7168                0               0                0               0
2.01316                0.7731455         -43.874        0.0285261        100.3859                0               0                0               0
2.01974                0.7657173       -44.40176       0.02929909        96.02482                0               0                0               0
2.02632                0.7580314        -44.9335       0.03008293        91.63426                0               0                0               0
2.03289                0.7500846       -45.46853       0.03087665        87.21477                0               0                0               0
2.03947                 0.741875       -46.00616       0.03167927        82.76701                0               0                0               0
2.04605                0.7334013       -46.54565       0.03248973        78.29169                0               0                0               0
2.05263                0.7246632       -47.08624       0.03330695        73.78958                0               0                0               0
2.05921                 0.715661        -47.6271       0.03412979        69.26149                0               0                0               0
2.06579                 0.706396       -48.16741       0.03495707        64.70824                0               0                0               0
2.07237                0.6968703       -48.70631        0.0357876        60.13071                0               0                0               0
2.07895                0.6870867       -49.24292       0.03662015        55.52978                0               0                0               0
2.08553                0.6770485       -49.77632       0.03745345        50.90633                0               0                0               0
2.09211                0.6667596       -50.30557       0.03828622         46.2613                0               0                0               0
2.09868                0.6562246        -50.8297       0.03911715        41.59559                0               0                0               0
2.10526                0.6454484       -51.34771       0.03994493        36.91012                0               0                0               0
2.11184                0.6344364       -51.85858       0.04076822         32.2058                0               0                0               0
2.11842                0.6231943       -52.36122       0.04158568        27.48357                0               0                0               0
2.125                   0.611728       -52.85449       0.04239597        22.74432                0               0                0               0
2.13158                0.6000436       -53.33721       0.04319773        17.98897                0               0                0               0
2.13816                0.5881475       -53.80812       0.04398963         13.2184                0               0                0               0
2.14474                 0.576046       -54.26588       0.04477032        8.433515                0               0                0               0
2.15132                0.5637456       -54.70901       0.04553848        3.635182                0               0                0               0
2.15789                 0.551253       -55.13595       0.04629278       -1.175728                0               0                0               0
2.16447                0.5385746       -55.54497       0.04703192       -5.998359                0               0                0               0
2.17105                0.5257172       -55.93414       0.04775461       -10.83187                0               0                0               0
2.17763                0.5126877       -56.30134       0.04845959       -15.67543                0               0                0               0
2.18421                 0.499493        -56.6442       0.04914563       -20.52821                0               0                0               0
2.19079                0.4861404       -56.96003       0.04981152        -25.3894                0               0                0               0
2.19737                0.4726376        -57.2458       0.05045608       -30.25821                0               0                0               0
2.20395                0.4589926       -57.49805       0.05107817       -35.13385                0               0                0               0
2.21053                0.4452142       -57.71284        0.0516767       -40.01553                0               0                0               0
2.21711                0.4313119       -57.88564       0.05225057       -44.90249                0               0                0               0
2.22368                0.4172963       -58.01126       0.05279881       -49.79397                0               0                0               0
2.23026                0.4031794       -58.08368       0.05332042       -54.68922                0               0                0               0
2.23684                0.3889747       -58.09597       0.05381448       -59.58748                0               0                0               0
2.24342                0.3746978       -58.04006       0.05428012       -64.48803                0               0                0               0
2.25                   0.3603667       -57.90657       0.05471651       -69.39012                0               0                0               0
2.25658                0.3460023       -57.68461       0.05512292       -74.29304                0               0                0               0
2.26316                0.3316292       -57.36143       0.05549861       -79.19605                0               0                0               0
2.26974                0.3172761       -56.92217       0.05584296       -84.09844                0               0                0               0
2.27632                0.3029771       -56.34944       0.05615537        -88.9995                0               0                0               0
2.28289                0.2887726       -55.62295       0.05643534       -93.89849                0               0                0               0
2.28947                0.2747106       -54.71901       0.05668242       -98.79472                0               0                0               0