! TOUCHSTONE file generated by CST MICROWAVE STUDIO
! Date and time: Tue Mar 11 13:57:04 2025
! Project name: transverse.cst
! Parameters = {Fracture=5; B=12.5; D=160; F=15; Feed=2.85625; L=100; M=30; R=0.384908; S=2; Theta=90; length=57.125; wave=114.25}
! Header version: 2024
! Port assignment regex: !\s*Touchstone port\s*([0-9]+)\s*=\s*(CST MWS port|CST DES external port|CST DES block port)\s*(.+)\s* \(\"(.*)\"\)(\s*mode\s*([0-9]+))?.*
! Touchstone port assignment:
! Touchstone port 1 = CST MWS port 1 ("")
! Touchstone port 2 = CST MWS port 2 ("")
# GHz S MA R 50
1                      0.9975025       -9.737749     0.0005126391        170.5513                0               0                0               0
1.0066                 0.9974345       -9.823446     0.0005086322        164.6242                0               0                0               0
1.0132                 0.9973691       -9.909822     0.0005024638        158.8031                0               0                0               0
1.0198                 0.9973061       -9.996936     0.0004941024        153.0978                0               0                0               0
1.0264                 0.9972446       -10.08484     0.0004835292         147.521                0               0                0               0
1.033                   0.997184       -10.17358     0.0004707404        142.0898                0               0                0               0
1.0396                 0.9971237       -10.26319     0.0004557496        136.8263                0               0                0               0
1.0462                 0.9970629       -10.35371     0.0004385909        131.7596                0               0                0               0
1.05281                0.9970005       -10.44516     0.0004193245        126.9286                0               0                0               0
1.05941                0.9969357       -10.53757      0.000398044        122.3849                0               0                0               0
1.06601                0.9968675       -10.63094     0.0003748871        118.1992                0               0                0               0
1.07261                0.9967948       -10.72527     0.0003500538        114.4684                0               0                0               0
1.07921                0.9967168       -10.82056     0.0003238336        111.3278                0               0                0               0
1.08581                0.9966326        -10.9168     0.0002966504        108.9682                0               0                0               0
1.09241                0.9965414       -11.01395     0.0002691371        107.6585                0               0                0               0
1.09901                0.9964424         -11.112     0.0002422553        107.7698                0               0                0               0
1.10561                0.9963351       -11.21091     0.0002174751        109.7756                0               0                0               0
1.11221                 0.996219       -11.31064     0.0001969839        114.1546                0               0                0               0
1.11881                0.9960938       -11.41114     0.0001837277        121.0608                0               0                0               0
1.12541                0.9959593       -11.51239     0.0001808198        129.7721                0               0                0               0
1.13201                0.9958155       -11.61433     0.0001901294        138.5681                0               0                0               0
1.13861                0.9956625       -11.71693     0.0002112361        145.6881                0               0                0               0
1.14521                0.9955006       -11.82014      0.000242042        150.3411                0               0                0               0
1.15182                0.9953302       -11.92393     0.0002801341         152.643                0               0                0               0
1.15842                0.9951518       -12.02828      0.000323544        153.0657                0               0                0               0
1.16502                0.9949662       -12.13315     0.0003708549        152.0881                0               0                0               0
1.17162                0.9947738       -12.23854     0.0004210728        150.0889                0               0                0               0
1.17822                0.9945758       -12.34445     0.0004734833        147.3438                0               0                0               0
1.18482                0.9943727       -12.45086     0.0005275492        144.0489                0               0                0               0
1.19142                0.9941656        -12.5578     0.0005828444        140.3438                0               0                0               0
1.19802                0.9939551       -12.66528     0.0006390131        136.3288                0               0                0               0
1.20462                0.9937422       -12.77334     0.0006957448        132.0777                0               0                0               0
1.21122                0.9935276       -12.88202      0.000752759        127.6452                0               0                0               0
1.21782                0.9933118       -12.99136     0.0008097953        123.0729                0               0                0               0
1.22442                0.9930956       -13.10142     0.0008666074         118.393                0               0                0               0
1.23102                0.9928792       -13.21226     0.0009229597        113.6308                0               0                0               0
1.23762                 0.992663       -13.32395      0.000978624        108.8065                0               0                0               0
1.24422                 0.992447       -13.43655       0.00103338        103.9369                0               0                0               0
1.25083                0.9922312       -13.55015      0.001087014         99.0357                0               0                0               0
1.25743                0.9920155        -13.6648      0.001139317        94.11464                0               0                0               0
1.26403                0.9917993       -13.78058      0.001190089        89.18386                0               0                0               0
1.27063                0.9915822       -13.89757      0.001239137        84.25232                0               0                0               0
1.27723                0.9913635       -14.01582      0.001286276         79.3281                0               0                0               0
1.28383                0.9911423       -14.13539      0.001331331        74.41863                0               0                0               0
1.29043                0.9909177       -14.25634      0.001374137        69.53089                0               0                0               0
1.29703                0.9906887       -14.37871      0.001414542        64.67156                0               0                0               0
1.30363                0.9904541       -14.50253      0.001452409        59.84714                0               0                0               0
1.31023                0.9902128       -14.62785      0.001487615         55.0641                0               0                0               0
1.31683                0.9899636       -14.75466      0.001520056        50.32892                0               0                0               0
1.32343                0.9897054       -14.88298      0.001549648        45.64823                0               0                0               0
1.33003                 0.989437       -15.01281      0.001576329        41.02881                0               0                0               0
1.33663                0.9891574       -15.14414      0.001600063        36.47775                0               0                0               0
1.34323                0.9888657       -15.27696       0.00162084        32.00241                0               0                0               0
1.34984                0.9885609       -15.41123      0.001638685        27.61052                0               0                0               0
1.35644                0.9882425       -15.54693      0.001653655        23.31018                0               0                0               0
1.36304                0.9879097       -15.68403      0.001665845        19.10987                0               0                0               0
1.36964                0.9875623       -15.82249      0.001675395        15.01845                0               0                0               0
1.37624                0.9872001       -15.96227      0.001682489        11.04509                0               0                0               0
1.38284                 0.986823       -16.10333      0.001687365        7.199158                0               0                0               0
1.38944                0.9864312       -16.24565      0.001690315        3.490122                0               0                0               0
1.39604                0.9860248        -16.3892      0.001691692     -0.07273148                0               0                0               0
1.40264                0.9856045       -16.53395       0.00169191       -3.480577                0               0                0               0
1.40924                0.9851707       -16.67989      0.001691453        -6.72547                0               0                0               0
1.41584                0.9847243       -16.82701      0.001690872       -9.800872                0               0                0               0
1.42244                 0.984266       -16.97532      0.001690784       -12.70227                0               0                0               0
1.42904                0.9837965       -17.12483       0.00169187       -15.42792                0               0                0               0
1.43564                0.9833169       -17.27558      0.001694869       -17.97958                0               0                0               0
1.44224                0.9828279        -17.4276      0.001700564       -20.36331                0               0                0               0
1.44884                0.9823304       -17.58094      0.001709764       -22.59009                0               0                0               0
1.45545                0.9818252       -17.73568      0.001723286       -24.67621                0               0                0               0
1.46205                0.9813127       -17.89189      0.001741927       -26.64332                0               0                0               0
1.46865                0.9807938       -18.04965      0.001766435       -28.51796                0               0                0               0
1.47525                0.9802686       -18.20907      0.001797481       -30.33067                0               0                0               0
1.48185                0.9797373       -18.37025      0.001835632       -32.11455                0               0                0               0
1.48845                0.9791999        -18.5333      0.001881333       -33.90352                0               0                0               0
1.49505                0.9786562       -18.69833      0.001934886       -35.73051                0               0                0               0
1.50165                0.9781055       -18.86547      0.001996454       -37.62571                0               0                0               0
1.50825                0.9775474       -19.03484      0.002066056       -39.61524                0               0                0               0
1.51485                0.9769806       -19.20655      0.002143585       -41.72021                0               0                0               0
1.52145                 0.976404       -19.38073      0.002228817       -43.95634                0               0                0               0
1.52805                0.9758163       -19.55747      0.002321436         -46.334                0               0                0               0
1.53465                0.9752158       -19.73688      0.002421046       -48.85867                0               0                0               0
1.54125                0.9746007       -19.91906      0.002527199       -51.53154                0               0                0               0
1.54785                0.9739692       -20.10409      0.002639402       -54.35033                0               0                0               0
1.55446                0.9733191       -20.29205       0.00275714          -57.31                0               0                0               0
1.56106                0.9726485       -20.48298      0.002879881       -60.40353                0               0                0               0
1.56766                0.9719551       -20.67694       0.00300709        -63.6225                0               0                0               0
1.57426                0.9712367       -20.87397      0.003138233       -66.95762                0               0                0               0
1.58086                0.9704912       -21.07409      0.003272784       -70.39915                0               0                0               0
1.58746                0.9697168       -21.27731      0.003410231       -73.93717                0               0                0               0
1.59406                0.9689111       -21.48362      0.003550075       -77.56188                0               0                0               0
1.60066                0.9680726       -21.69302      0.003691838       -81.26366                0               0                0               0
1.60726                0.9671994        -21.9055      0.003835061       -85.03325                0               0                0               0
1.61386                0.9662903       -22.12102      0.003979307       -88.86177                0               0                0               0
1.62046                0.9653438       -22.33956      0.004124167       -92.74078                0               0                0               0
1.62706                0.9643589       -22.56109      0.004269256       -96.66224                0               0                0               0
1.63366                0.9633348       -22.78558       0.00441422       -100.6186                0               0                0               0
1.64026                0.9622708       -23.01301      0.004558735       -104.6026                0               0                0               0
1.64686                0.9611665       -23.24336      0.004702511       -108.6074                0               0                0               0
1.65347                0.9600217        -23.4766      0.004845298       -112.6268                0               0                0               0
1.66007                0.9588363       -23.71275      0.004986881       -116.6545                0               0                0               0
1.66667                0.9576106        -23.9518      0.005127091       -120.6849                0               0                0               0
1.67327                0.9563445       -24.19379      0.005265803       -124.7126                0               0                0               0
1.67987                0.9550385       -24.43876      0.005402943       -128.7324                0               0                0               0
1.68647                0.9536929       -24.68676      0.005538488       -132.7395                0               0                0               0
1.69307                 0.952308       -24.93786      0.005672474       -136.7294                0               0                0               0
1.69967                0.9508841       -25.19217      0.005804993       -140.6978                0               0                0               0
1.70627                0.9494215       -25.44978      0.005936203        -144.641                0               0                0               0
1.71287                0.9479201       -25.71083      0.006066328       -148.5553                0               0                0               0
1.71947                0.9463797       -25.97547       0.00619566       -152.4375                0               0                0               0
1.72607                0.9448001       -26.24387      0.006324564       -156.2848                0               0                0               0
1.73267                0.9431806       -26.51619      0.006453477       -160.0949                0               0                0               0
1.73927                0.9415203       -26.79264      0.006582912       -163.8658                0               0                0               0
1.74587                0.9398179       -27.07341      0.006713456       -167.5962                0               0                0               0
1.75248                0.9380719       -27.35873      0.006845769       -171.2852                0               0                0               0
1.75908                0.9362802        -27.6488      0.006980585       -174.9325                0               0                0               0
1.76568                0.9344406       -27.94385      0.007118701       -178.5387                0               0                0               0
1.77228                0.9325503        -28.2441      0.007260982        177.8951                0               0                0               0
1.77888                0.9306064       -28.54978      0.007408346         174.367                0               0                0               0
1.78548                0.9286052        -28.8611      0.007561757        170.8745                0               0                0               0
1.79208                0.9265431       -29.17828      0.007722218        167.4142                0               0                0               0
1.79868                 0.924416       -29.50152      0.007890756        163.9821                0               0                0               0
1.80528                0.9222195       -29.83101      0.008068411        160.5735                0               0                0               0
1.81188                 0.919949       -30.16693      0.008256219         157.183                0               0                0               0
1.81848                0.9175997       -30.50944      0.008455201        153.8047                0               0                0               0
1.82508                0.9151665       -30.85872      0.008666345        150.4325                0               0                0               0
1.83168                0.9126442       -31.21488      0.008890593        147.0597                0               0                0               0
1.83828                0.9100278       -31.57806      0.009128827        143.6797                0               0                0               0
1.84488                 0.907312       -31.94837      0.009381854        140.2858                0               0                0               0
1.85149                0.9044911       -32.32591      0.009650399        136.8713                0               0                0               0
1.85809                  0.90156       -32.71075      0.009935091        133.4299                0               0                0               0
1.86469                0.8985135       -33.10298       0.01023646        129.9556                0               0                0               0
1.87129                0.8953463       -33.50266       0.01055493         126.443                0               0                0               0
1.87789                0.8920529       -33.90985       0.01089082        122.8871                0               0                0               0
1.88449                0.8886287       -34.32462       0.01124433        119.2835                0               0                0               0
1.89109                0.8850683       -34.74699       0.01161557        115.6287                0               0                0               0
1.89769                0.8813669       -35.17705       0.01200452        111.9196                0               0                0               0
1.90429                0.8775194       -35.61482       0.01241108        108.1538                0               0                0               0
1.91089                0.8735212       -36.06038       0.01283504        104.3296                0               0                0               0
1.91749                0.8693671       -36.51378       0.01327611        100.4458                0               0                0               0
1.92409                0.8650524       -36.97511        0.0137339        96.50183                0               0                0               0
1.93069                 0.860572       -37.44443       0.01420795        92.49761                0               0                0               0
1.93729                0.8559209       -37.92184       0.01469774        88.43345                0               0                0               0
1.94389                0.8510938       -38.40745       0.01520265        84.31005                0               0                0               0
1.9505                 0.8460853       -38.90134       0.01572203        80.12845                0               0                0               0
1.9571                 0.8408897       -39.40365       0.01625516        75.88994                0               0                0               0
1.9637                  0.835501       -39.91448       0.01680126        71.59603                0               0                0               0
1.9703                  0.829913       -40.43397       0.01735954        67.24841                0               0                0               0
1.9769                 0.8241191       -40.96223       0.01792913        62.84891                0               0                0               0
1.9835                 0.8181124       -41.49941       0.01850913        58.39944                0               0                0               0
1.9901                 0.8118852        -42.0456       0.01909864        53.90198                0               0                0               0
1.9967                 0.8054299       -42.60093       0.01969668        49.35854                0               0                0               0
2.0033                 0.7987383       -43.16547       0.02030229        44.77117                0               0                0               0
2.0099                 0.7918017       -43.73928       0.02091445         40.1419                0               0                0               0
2.0165                 0.7846113       -44.32241       0.02153214        35.47274                0               0                0               0
2.0231                 0.7771576       -44.91485       0.02215433        30.76567                0               0                0               0
2.0297                 0.7694313       -45.51656       0.02277996        26.02264                0               0                0               0
2.0363                 0.7614223       -46.12743       0.02340795        21.24554                0               0                0               0
2.0429                 0.7531208       -46.74731       0.02403724        16.43622                0               0                0               0
2.0495                 0.7445168       -47.37596       0.02466673        11.59648                0               0                0               0
2.05611                0.7356005       -48.01309       0.02529535        6.728023                0               0                0               0
2.06271                0.7263618       -48.65829       0.02592199         1.83254                0               0                0               0
2.06931                0.7167913       -49.31107       0.02654557       -3.088364                0               0                0               0
2.07591                0.7068798       -49.97084       0.02716499       -8.033137                0               0                0               0
2.08251                0.6966188       -50.63687       0.02777917       -13.00029                0               0                0               0
2.08911                0.6860001       -51.30831       0.02838703       -17.98838                0               0                0               0
2.09571                0.6750166       -51.98417        0.0289875       -22.99603                0               0                0               0
2.10231                0.6636622       -52.66331       0.02957952       -28.02191                0               0                0               0
2.10891                0.6519315       -53.34442       0.03016203       -33.06475                0               0                0               0
2.11551                0.6398207       -54.02599       0.03073402       -38.12332                0               0                0               0
2.12211                0.6273273       -54.70632       0.03129447       -43.19643                0               0                0               0
2.12871                0.6144502       -55.38346       0.03184238       -48.28295                0               0                0               0
2.13531                0.6011898       -56.05526       0.03237677       -53.38178                0               0                0               0
2.14191                0.5875487       -56.71925        0.0328967       -58.49186                0               0                0               0
2.14851                 0.573531       -57.37269       0.03340124       -63.61217                0               0                0               0
2.15512                 0.559143       -58.01247       0.03388949       -68.74171                0               0                0               0
2.16172                0.5443933       -58.63509       0.03436059       -73.87952                0               0                0               0
2.16832                0.5292924       -59.23666       0.03481371       -79.02469                0               0                0               0
2.17492                0.5138534       -59.81273       0.03524803       -84.17629                0               0                0               0
2.18152                0.4980921        -60.3583       0.03566279       -89.33345                0               0                0               0
2.18812                0.4820266       -60.86773       0.03605727       -94.49531                0               0                0               0
2.19472                 0.465678       -61.33456       0.03643076       -99.66103                0               0                0               0
2.20132                0.4490703       -61.75148       0.03678262       -104.8298                0               0                0               0
2.20792                0.4322309       -62.11007       0.03711223       -110.0008                0               0                0               0
2.21452                0.4151902        -62.4007       0.03741903       -115.1732                0               0                0               0
2.22112                0.3979828       -62.61221        0.0377025       -120.3463                0               0                0               0
2.22772                0.3806471        -62.7317       0.03796216       -125.5193                0               0                0               0
2.23432                0.3632262       -62.74412       0.03819758       -130.6914                0               0                0               0
2.24092                0.3457687       -62.63188       0.03840839       -135.8619                0               0                0               0
2.24752                0.3283291       -62.37434       0.03859424         -141.03                0               0                0               0
2.25413                 0.310969       -61.94717       0.03875486       -146.1949                0               0                0               0
2.26073                 0.293759        -61.3217       0.03889002        -151.356                0               0                0               0
2.26733                  0.27678       -60.46415       0.03899954       -156.5125                0               0                0               0
2.27393                0.2601255       -59.33478       0.03908329       -161.6636                0               0                0               0
2.28053                0.2439048       -57.88727        0.0391412       -166.8086                0               0                0               0
2.28713                0.2282464       -56.06842       0.03917326       -171.9468                0               0                0               0
2.29373                0.2133016       -53.81866        0.0391795       -177.0773                0               0                0               0