! TOUCHSTONE file generated by CST MICROWAVE STUDIO
! Date and time: Tue Mar 11 13:57:10 2025
! Project name: transverse.cst
! Parameters = {Fracture=5; B=10; D=160; F=5; Feed=2.85625; L=100; M=10; R=0.384908; S=1; Theta=180; length=57.125; wave=114.25}
! Header version: 2024
! Port assignment regex: !\s*Touchstone port\s*([0-9]+)\s*=\s*(CST MWS port|CST DES external port|CST DES block port)\s*(.+)\s* \(\"(.*)\"\)(\s*mode\s*([0-9]+))?.*
! Touchstone port assignment:
! Touchstone port 1 = CST MWS port 1 ("")
! Touchstone port 2 = CST MWS port 2 ("")
# GHz S MA R 50
1                       0.997928        -9.75476     0.0003096626       -115.5688                0               0                0               0
1.00658                0.9978437        -9.84411     0.0003344271       -120.9874                0               0                0               0
1.01316                 0.997751       -9.933875      0.000358287       -126.4229                0               0                0               0
1.01974                0.9976504         -10.024     0.0003811084       -131.8628                0               0                0               0
1.02632                0.9975426       -10.11444     0.0004027595       -137.2972                0               0                0               0
1.03289                0.9974285       -10.20516     0.0004231114       -142.7178                0               0                0               0
1.03947                0.9973093       -10.29611     0.0004420385       -148.1172                0               0                0               0
1.04605                0.9971858        -10.3873     0.0004594192       -153.4887                0               0                0               0
1.05263                0.9970593        -10.4787     0.0004751368       -158.8259                0               0                0               0
1.05921                0.9969311       -10.57032     0.0004890809       -164.1224                0               0                0               0
1.06579                0.9968024       -10.66218      0.000501147       -169.3714                0               0                0               0
1.07237                0.9966744       -10.75431     0.0005112386       -174.5659                0               0                0               0
1.07895                0.9965482       -10.84676     0.0005192683       -179.6981                0               0                0               0
1.08553                0.9964249       -10.93957     0.0005251581        175.2406                0               0                0               0
1.09211                0.9963053       -11.03281     0.0005288418        170.2602                0               0                0               0
1.09868                0.9961902       -11.12656      0.000530266         165.372                0               0                0               0
1.10526                0.9960804        -11.2209     0.0005293922        160.5894                0               0                0               0
1.11184                0.9959758       -11.31592     0.0005261989        155.9281                0               0                0               0
1.11842                0.9958767        -11.4117     0.0005206847        151.4069                0               0                0               0
1.125                  0.9957832       -11.50835     0.0005128718        147.0485                0               0                0               0
1.13158                0.9956946       -11.60595     0.0005028099        142.8805                0               0                0               0
1.13816                0.9956106        -11.7046      0.000490583        138.9365                0               0                0               0
1.14474                0.9955304       -11.80438     0.0004763169         135.258                0               0                0               0
1.15132                0.9954528       -11.90537     0.0004601899        131.8961                0               0                0               0
1.15789                0.9953768       -12.00765     0.0004424475         128.914                0               0                0               0
1.16447                 0.995301       -12.11126     0.0004234213         126.389                0               0                0               0
1.17105                0.9952238       -12.21627     0.0004035557        124.4148                0               0                0               0
1.17763                0.9951438       -12.32271     0.0003834409        123.1014                0               0                0               0
1.18421                0.9950594        -12.4306     0.0003638522        122.5701                0               0                0               0
1.19079                0.9949691       -12.53995     0.0003457891        122.9393                0               0                0               0
1.19737                0.9948711       -12.65075     0.0003304957        124.2943                0               0                0               0
1.20395                0.9947638         -12.763     0.0003194276        126.6371                0               0                0               0
1.21053                 0.994646       -12.87665     0.0003141224        129.8276                0               0                0               0
1.21711                0.9945163       -12.99167     0.0003159527        133.5502                0               0                0               0
1.22368                0.9943735       -13.10801     0.0003258295        137.3546                0               0                0               0
1.23026                0.9942169       -13.22562     0.0003440037        140.7737                0               0                0               0
1.23684                0.9940457       -13.34441     0.0003700869        143.4527                0               0                0               0
1.24342                0.9938593       -13.46433      0.000403257        145.2105                0               0                0               0
1.25                   0.9936575       -13.58531     0.0004425099        146.0205                0               0                0               0
1.25658                0.9934405       -13.70727     0.0004868455        145.9537                0               0                0               0
1.26316                0.9932085       -13.83016     0.0005353616        145.1248                0               0                0               0
1.26974                0.9929618        -13.9539     0.0005872823        143.6569                0               0                0               0
1.27632                0.9927015       -14.07845     0.0006419512        141.6642                0               0                0               0
1.28289                0.9924279       -14.20377     0.0006988121        139.2453                0               0                0               0
1.28947                0.9921425       -14.32981     0.0007573889        136.4826                0               0                0               0
1.29605                0.9918465       -14.45657     0.0008172682        133.4437                0               0                0               0
1.30263                0.9915408       -14.58404     0.0008780841        130.1836                0               0                0               0
1.30921                 0.991227       -14.71222     0.0009395093        126.7475                0               0                0               0
1.31579                0.9909063       -14.84115      0.001001248        123.1723                0               0                0               0
1.32237                0.9905802       -14.97086      0.001063029        119.4887                0               0                0               0
1.32895                0.9902496       -15.10141      0.001124606        115.7222                0               0                0               0
1.33553                0.9899156       -15.23288      0.001185753        111.8945                0               0                0               0
1.34211                0.9895792       -15.36533      0.001246265         108.024                0               0                0               0
1.34868                0.9892412       -15.49887      0.001305956        104.1269                0               0                0               0
1.35526                0.9889019       -15.63361      0.001364665        100.2171                0               0                0               0
1.36184                0.9885615       -15.76965      0.001422251        96.30706                0               0                0               0
1.36842                0.9882202       -15.90711      0.001478598        92.40801                0               0                0               0
1.375                  0.9878776        -16.0461      0.001533619        88.53009                0               0                0               0
1.38158                 0.987533       -16.18676      0.001587252        84.68257                0               0                0               0
1.38816                0.9871855       -16.32918      0.001639469          80.874                0               0                0               0
1.39474                0.9868339       -16.47348      0.001690276        77.11229                0               0                0               0
1.40132                0.9864772       -16.61976      0.001739716        73.40472                0               0                0               0
1.40789                0.9861133       -16.76812      0.001787871        69.75802                0               0                0               0
1.41447                0.9857405       -16.91863      0.001834865        66.17828                0               0                0               0
1.42105                0.9853572       -17.07135       0.00188087        62.67097                0               0                0               0
1.42763                0.9849609       -17.22635      0.001926101        59.24083                0               0                0               0
1.43421                0.9845497       -17.38365      0.001970824        55.89178                0               0                0               0
1.44079                0.9841212       -17.54327      0.002015354        52.62678                0               0                0               0
1.44737                0.9836737       -17.70521      0.002060056        49.44774                0               0                0               0
1.45395                0.9832049       -17.86946      0.002105343        46.35529                0               0                0               0
1.46053                0.9827128         -18.036      0.002151674        43.34873                0               0                0               0
1.46711                 0.982196       -18.20477       0.00219955        40.42584                0               0                0               0
1.47368                0.9816526       -18.37573      0.002249509        37.58278                0               0                0               0
1.48026                0.9810815       -18.54881      0.002302115        34.81403                0               0                0               0
1.48684                0.9804816       -18.72394      0.002357956        32.11241                0               0                0               0
1.49342                0.9798523       -18.90106      0.002417626        29.46916                0               0                0               0
1.5                     0.979193       -19.08007      0.002481718        26.87403                0               0                0               0
1.50658                0.9785037       -19.26092       0.00255081        24.31561                0               0                0               0
1.51316                0.9777843       -19.44353      0.002625453        21.78157                0               0                0               0
1.51974                0.9770355       -19.62785      0.002706158        19.25905                0               0                0               0
1.52632                0.9762579       -19.81381       0.00279339        16.73507                0               0                0               0
1.53289                0.9754524       -20.00139      0.002887551        14.19693                0               0                0               0
1.53947                0.9746201       -20.19057      0.002988981        11.63262                0               0                0               0
1.54605                0.9737621       -20.38133      0.003097951        9.031117                0               0                0               0
1.55263                  0.97288       -20.57371      0.003214661        6.382695                0               0                0               0
1.55921                0.9719751       -20.76773      0.003339238        3.679094                0               0                0               0
1.56579                0.9710487       -20.96345      0.003471744       0.9136361                0               0                0               0
1.57237                0.9701021       -21.16096      0.003612173       -1.918757                0               0                0               0
1.57895                0.9691363       -21.36036      0.003760462       -4.821596                0               0                0               0
1.58553                0.9681528       -21.56176      0.003916495       -7.796936                0               0                0               0
1.59211                0.9671518       -21.76531       0.00408011       -10.84549                0               0                0               0
1.59868                0.9661341       -21.97116      0.004251103       -13.96682                0               0                0               0
1.60526                0.9650995       -22.17948      0.004429239       -17.15947                0               0                0               0
1.61184                0.9640479       -22.39047      0.004614254       -20.42116                0               0                0               0
1.61842                0.9629787       -22.60429      0.004805866       -23.74896                0               0                0               0
1.625                  0.9618908       -22.82117      0.005003775        -27.1394                0               0                0               0
1.63158                0.9607827       -23.04127      0.005207674       -30.58864                0               0                0               0
1.63816                0.9596526       -23.26481      0.005417252       -34.09258                0               0                0               0
1.64474                 0.958498       -23.49197      0.005632195       -37.64693                0               0                0               0
1.65132                0.9573163       -23.72292      0.005852197       -41.24733                0               0                0               0
1.65789                0.9561046       -23.95784      0.006076962        -44.8894                0               0                0               0
1.66447                0.9548593       -24.19687      0.006306202        -48.5688                0               0                0               0
1.67105                 0.953577       -24.44013      0.006539652       -52.28125                0               0                0               0
1.67763                0.9522538       -24.68774      0.006777064       -56.02259                0               0                0               0
1.68421                0.9508855       -24.93979      0.007018219       -59.78883                0               0                0               0
1.69079                0.9494684       -25.19632      0.007262921        -63.5761                0               0                0               0
1.69737                0.9479983        -25.4574      0.007511012       -67.38075                0               0                0               0
1.70395                0.9464708       -25.72301      0.007762361       -71.19928                0               0                0               0
1.71053                0.9448826       -25.99318      0.008016885       -75.02843                0               0                0               0
1.71711                0.9432294       -26.26784      0.008274535       -78.86515                0               0                0               0
1.72368                0.9415078       -26.54697      0.008535313       -82.70659                0               0                0               0
1.73026                0.9397147       -26.83049      0.008799262       -86.55015                0               0                0               0
1.73684                0.9378472       -27.11832      0.009066483       -90.39345                0               0                0               0
1.74342                0.9359026       -27.41037       0.00933712       -94.23439                0               0                0               0
1.75                   0.9338787       -27.70655      0.009611381       -98.07108                0               0                0               0
1.75658                0.9317739       -28.00675      0.009889521       -101.9019                0               0                0               0
1.76316                0.9295869       -28.31088       0.01017186       -105.7256                0               0                0               0
1.76974                0.9273166       -28.61885       0.01045876       -109.5409                0               0                0               0
1.77632                0.9249623       -28.93058       0.01075065       -113.3472                0               0                0               0
1.78289                0.9225238       -29.24602       0.01104802        -117.144                0               0                0               0
1.78947                0.9200012       -29.56512        0.0113514        -120.931                0               0                0               0
1.79605                0.9173946       -29.88786       0.01166137       -124.7082                0               0                0               0
1.80263                0.9147046       -30.21425       0.01197858       -128.4761                0               0                0               0
1.80921                0.9119316       -30.54433       0.01230369       -132.2353                0               0                0               0
1.81579                0.9090761       -30.87818       0.01263743       -135.9867                0               0                0               0
1.82237                0.9061386        -31.2159       0.01298052       -139.7315                0               0                0               0
1.82895                0.9031193       -31.55763       0.01333376       -143.4711                0               0                0               0
1.83553                0.9000184       -31.90354       0.01369792       -147.2071                0               0                0               0
1.84211                0.8968354       -32.25384       0.01407381       -150.9414                0               0                0               0
1.84868                0.8935696       -32.60878       0.01446222       -154.6762                0               0                0               0
1.85526                  0.89022       -32.96861       0.01486395       -158.4134                0               0                0               0
1.86184                0.8867844       -33.33363       0.01527978       -162.1556                0               0                0               0
1.86842                0.8832608       -33.70415       0.01571046        -165.905                0               0                0               0
1.875                  0.8796457       -34.08051        0.0161567       -169.6641                0               0                0               0
1.88158                0.8759353       -34.46304       0.01661918       -173.4355                0               0                0               0
1.88816                0.8721252       -34.85209       0.01709853       -177.2215                0               0                0               0
1.89474                0.8682099         -35.248       0.01759531        178.9755                0               0                0               0
1.90132                0.8641832       -35.65112       0.01811003        175.1531                0               0                0               0
1.90789                0.8600382       -36.06175       0.01864311        171.3092                0               0                0               0
1.91447                0.8557675       -36.48018       0.01919492        167.4416                0               0                0               0
1.92105                0.8513629        -36.9067       0.01976572        163.5486                0               0                0               0
1.92763                0.8468154       -37.34154       0.02035572        159.6282                0               0                0               0
1.93421                0.8421158       -37.78488         0.020965        155.6791                0               0                0               0
1.94079                0.8372545       -38.23686       0.02159359        151.6997                0               0                0               0
1.94737                0.8322214       -38.69759       0.02224141        147.6891                0               0                0               0
1.95395                0.8270062       -39.16708        0.0229083        143.6462                0               0                0               0
1.96053                0.8215988       -39.64533         0.023594        139.5703                0               0                0               0
1.96711                0.8159886       -40.13223       0.02429816        135.4608                0               0                0               0
1.97368                0.8101658       -40.62764       0.02502037        131.3173                0               0                0               0
1.98026                0.8041202       -41.13132       0.02576011        127.1396                0               0                0               0
1.98684                0.7978425         -41.643       0.02651678        122.9278                0               0                0               0
1.99342                0.7913237       -42.16231        0.0272897        118.6819                0               0                0               0
2                      0.7845553       -42.68882       0.02807813        114.4021                0               0                0               0
2.00658                0.7775296       -43.22205       0.02888124        110.0888                0               0                0               0
2.01316                0.7702398       -43.76143       0.02969813        105.7426                0               0                0               0
2.01974                0.7626799       -44.30634       0.03052784         101.364                0               0                0               0
2.02632                0.7548446       -44.85611       0.03136936        96.95374                0               0                0               0
2.03289                0.7467297          -45.41        0.0322216        92.51247                0               0                0               0
2.03947                0.7383322       -45.96721       0.03308343        88.04105                0               0                0               0
2.04605                0.7296499        -46.5269       0.03395366        83.54035                0               0                0               0
2.05263                0.7206819       -47.08818       0.03483106        79.01128                0               0                0               0
2.05921                 0.711428       -47.65012       0.03571435        74.45477                0               0                0               0
2.06579                0.7018894       -48.21173       0.03660223        69.87181                0               0                0               0
2.07237                0.6920681         -48.772       0.03749334        65.26338                0               0                0               0
2.07895                0.6819668       -49.32984       0.03838631        60.63049                0               0                0               0
2.08553                0.6715898       -49.88419       0.03927972        55.97415                0               0                0               0
2.09211                0.6609416       -50.43389       0.04017216        51.29539                0               0                0               0
2.09868                0.6500277       -50.97776       0.04106219        46.59522                0               0                0               0
2.10526                0.6388542       -51.51458       0.04194832        41.87465                0               0                0               0
2.11184                0.6274282        -52.0431        0.0428291        37.13469                0               0                0               0
2.11842                 0.615757       -52.56198       0.04370304        32.37635                0               0                0               0
2.125                  0.6038483       -53.06986       0.04456866        27.60061                0               0                0               0
2.13158                0.5917105       -53.56528       0.04542448        22.80845                0               0                0               0
2.13816                0.5793521       -54.04673       0.04626903        18.00082                0               0                0               0
2.14474                0.5667819       -54.51257       0.04710082        13.17869                0               0                0               0
2.15132                0.5540091       -54.96109       0.04791841        8.342973                0               0                0               0
2.15789                0.5410426       -55.39041       0.04872035        3.494603                0               0                0               0
2.16447                 0.527892       -55.79849       0.04950523        -1.36552                0               0                0               0
2.17105                0.5145665       -56.18312       0.05027164       -6.236507                0               0                0               0
2.17763                0.5010759       -56.54184       0.05101821       -11.11748                0               0                0               0
2.18421                0.4874297       -56.87191        0.0517436       -16.00759                0               0                0               0
2.19079                0.4736381       -57.17029       0.05244651       -20.90598                0               0                0               0
2.19737                 0.459711       -57.43352       0.05312565       -25.81182                0               0                0               0
2.20395                0.4456593       -57.65768        0.0537798       -30.72429                0               0                0               0
2.21053                0.4314942       -57.83831       0.05440777       -35.64258                0               0                0               0
2.21711                0.4172275       -57.97031       0.05500843        -40.5659                0               0                0               0
2.22368                0.4028723       -58.04775       0.05558068       -45.49345                0               0                0               0
2.23026                0.3884427       -58.06385       0.05612348       -50.42446                0               0                0               0
2.23684                0.3739545       -58.01069       0.05663585       -55.35816                0               0                0               0
2.24342                0.3594256       -57.87906       0.05711687        -60.2938                0               0                0               0
2.25                   0.3448765       -57.65821       0.05756567       -65.23059                0               0                0               0
2.25658                0.3303308       -57.33554       0.05798145       -70.16781                0               0                0               0
2.26316                0.3158159       -56.89631       0.05836348        -75.1047                0               0                0               0
2.26974                0.3013644       -56.32317       0.05871109       -80.04052                0               0                0               0
2.27632                0.2870145       -55.59578       0.05902367       -84.97453                0               0                0               0
2.28289                0.2728119       -54.69025        0.0593007       -89.90598                0               0                0               0
2.28947                0.2588116       -53.57866       0.05954173       -94.83415                0               0                0               0