! TOUCHSTONE file generated by CST MICROWAVE STUDIO
! Date and time: Tue Mar 11 13:56:40 2025
! Project name: transverse.cst
! Parameters = {Fracture=1; B=10; D=160; F=25; Feed=2.85625; L=100; M=10; R=0.384908; S=1; Theta=90; length=57.125; wave=114.25}
! Header version: 2024
! Port assignment regex: !\s*Touchstone port\s*([0-9]+)\s*=\s*(CST MWS port|CST DES external port|CST DES block port)\s*(.+)\s* \(\"(.*)\"\)(\s*mode\s*([0-9]+))?.*
! Touchstone port assignment:
! Touchstone port 1 = CST MWS port 1 ("")
! Touchstone port 2 = CST MWS port 2 ("")
# GHz S MA R 50
1                      0.9976517       -9.997678     0.0003544621       -157.4103                0               0                0               0
1.00658                0.9975837       -10.08552     0.0003577393       -160.9014                0               0                0               0
1.01316                0.9975167         -10.174      0.000360386       -164.2278                0               0                0               0
1.01974                0.9974502       -10.26316     0.0003624906        -167.375                0               0                0               0
1.02632                0.9973839       -10.35302     0.0003641649       -170.3288                0               0                0               0
1.03289                0.9973177       -10.44364     0.0003655464       -173.0761                0               0                0               0
1.03947                0.9972508       -10.53503     0.0003667998       -175.6052                0               0                0               0
1.04605                0.9971828       -10.62722     0.0003681182       -177.9072                0               0                0               0
1.05263                 0.997113       -10.72024     0.0003697232       -179.9775                0               0                0               0
1.05921                 0.997041       -10.81411     0.0003718628        178.1829                0               0                0               0
1.06579                 0.996966       -10.90882     0.0003748079        176.5659                0               0                0               0
1.07237                0.9968873        -11.0044     0.0003788453        175.1546                0               0                0               0
1.07895                0.9968044       -11.10084     0.0003842694        173.9228                0               0                0               0
1.08553                0.9967165       -11.19815     0.0003913698         172.835                0               0                0               0
1.09211                0.9966233       -11.29631      0.000400419        171.8473                0               0                0               0
1.09868                0.9965241        -11.3953     0.0004116591        170.9101                0               0                0               0
1.10526                0.9964185       -11.49513     0.0004252908        169.9712                0               0                0               0
1.11184                 0.996306       -11.59575     0.0004414651        168.9796                0               0                0               0
1.11842                0.9961863       -11.69717     0.0004602795        167.8886                0               0                0               0
1.125                  0.9960595       -11.79934     0.0004817786        166.6593                0               0                0               0
1.13158                0.9959252       -11.90225     0.0005059583        165.2615                0               0                0               0
1.13816                0.9957835       -12.00588      0.000532772        163.6749                0               0                0               0
1.14474                0.9956344        -12.1102     0.0005621395        161.8877                0               0                0               0
1.15132                0.9954781       -12.21519     0.0005939541        159.8964                0               0                0               0
1.15789                0.9953149       -12.32083     0.0006280907        157.7036                0               0                0               0
1.16447                 0.995145       -12.42712     0.0006644115        155.3166                0               0                0               0
1.17105                0.9949691       -12.53404     0.0007027712        152.7461                0               0                0               0
1.17763                0.9947872       -12.64159     0.0007430204        150.0048                0               0                0               0
1.18421                   0.9946       -12.74978     0.0007850084        147.1066                0               0                0               0
1.19079                0.9944081        -12.8586     0.0008285857        144.0657                0               0                0               0
1.19737                0.9942121       -12.96808     0.0008736043        140.8962                0               0                0               0
1.20395                0.9940121       -13.07823      0.000919919        137.6117                0               0                0               0
1.21053                0.9938089       -13.18908     0.0009673885        134.2253                0               0                0               0
1.21711                0.9936028       -13.30065      0.001015875        130.7492                0               0                0               0
1.22368                 0.993394         -13.413      0.001065245        127.1946                0               0                0               0
1.23026                0.9931831       -13.52616      0.001115371        123.5722                0               0                0               0
1.23684                0.9929701       -13.64016      0.001166128        119.8918                0               0                0               0
1.24342                0.9927551       -13.75507      0.001217398        116.1622                0               0                0               0
1.25                   0.9925382       -13.87093       0.00126907        112.3918                0               0                0               0
1.25658                0.9923192        -13.9878      0.001321037        108.5881                0               0                0               0
1.26316                 0.992098       -14.10571      0.001373201        104.7584                0               0                0               0
1.26974                0.9918742       -14.22473      0.001425471        100.9089                0               0                0               0
1.27632                0.9916474        -14.3449      0.001477764        97.04575                0               0                0               0
1.28289                0.9914171       -14.46627      0.001530005        93.17449                0               0                0               0
1.28947                0.9911826       -14.58888      0.001582131        89.30025                0               0                0               0
1.29605                0.9909437       -14.71277      0.001634088         85.4278                0               0                0               0
1.30263                0.9906992       -14.83797      0.001685833        81.56154                0               0                0               0
1.30921                0.9904484        -14.9645      0.001737336        77.70558                0               0                0               0
1.31579                0.9901908       -15.09241       0.00178858        73.86368                0               0                0               0
1.32237                0.9899254       -15.22168      0.001839558        70.03931                0               0                0               0
1.32895                0.9896516       -15.35235      0.001890283        66.23564                0               0                0               0
1.33553                0.9893684       -15.48441      0.001940778        62.45554                0               0                0               0
1.34211                0.9890754       -15.61786      0.001991085         58.7016                0               0                0               0
1.34868                0.9887719       -15.75271      0.002041257        54.97608                0               0                0               0
1.35526                0.9884575       -15.88893      0.002091368        51.28093                0               0                0               0
1.36184                0.9881315       -16.02653      0.002141505        47.61779                0               0                0               0
1.36842                0.9877935       -16.16549      0.002191772        43.98794                0               0                0               0
1.375                  0.9874436       -16.30579      0.002242288        40.39232                0               0                0               0
1.38158                0.9870814       -16.44743       0.00229319        36.83148                0               0                0               0
1.38816                0.9867071       -16.59039      0.002344626         33.3056                0               0                0               0
1.39474                0.9863208       -16.73467      0.002396759        29.81446                0               0                0               0
1.40132                0.9859224       -16.88025      0.002449765        26.35743                0               0                0               0
1.40789                0.9855125       -17.02715       0.00250383        22.93349                0               0                0               0
1.41447                0.9850912       -17.17536      0.002559147        19.54121                0               0                0               0
1.42105                0.9846591       -17.32491      0.002615918        16.17877                0               0                0               0
1.42763                0.9842166       -17.47581      0.002674349        12.84397                0               0                0               0
1.43421                0.9837642        -17.6281      0.002734648        9.534261                0               0                0               0
1.44079                0.9833025        -17.7818       0.00279702        6.246789                0               0                0               0
1.44737                0.9828318       -17.93698      0.002861669        2.978426                0               0                0               0
1.45395                0.9823526       -18.09368      0.002928793      -0.2741747                0               0                0               0
1.46053                0.9818652       -18.25196      0.002998578       -3.514524                0               0                0               0
1.46711                0.9813699        -18.4119      0.003071201       -6.746236                0               0                0               0
1.47368                0.9808668       -18.57359      0.003146825       -9.972959                0               0                0               0
1.48026                0.9803561       -18.73709      0.003225597       -13.19832                0               0                0               0
1.48684                0.9798376       -18.90252      0.003307643       -16.42584                0               0                0               0
1.49342                 0.979311       -19.06994      0.003393076       -19.65892                0               0                0               0
1.5                     0.978776       -19.23948      0.003481982       -22.90073                0               0                0               0
1.50658                 0.978232       -19.41123      0.003574431        -26.1542                0               0                0               0
1.51316                 0.977678       -19.58528      0.003670469       -29.42195                0               0                0               0
1.51974                0.9771133       -19.76174      0.003770122        -32.7063                0               0                0               0
1.52632                0.9765369       -19.94071      0.003873396       -36.00922                0               0                0               0
1.53289                0.9759473       -20.12227      0.003980275        -39.3323                0               0                0               0
1.53947                0.9753434       -20.30652      0.004090728        -42.6768                0               0                0               0
1.54605                0.9747236       -20.49354      0.004204705        -46.0436                0               0                0               0
1.55263                0.9740863       -20.68339       0.00432214       -49.43323                0               0                0               0
1.55921                0.9734298       -20.87617      0.004442956       -52.84591                0               0                0               0
1.56579                0.9727525       -21.07191      0.004567065       -56.28152                0               0                0               0
1.57237                0.9720527       -21.27068      0.004694367       -59.73966                0               0                0               0
1.57895                0.9713285       -21.47253      0.004824761       -63.21968                0               0                0               0
1.58553                0.9705782       -21.67749      0.004958137       -66.72067                0               0                0               0
1.59211                0.9698001       -21.88559      0.005094386       -70.24155                0               0                0               0
1.59868                0.9689926       -22.09686      0.005233402       -73.78103                0               0                0               0
1.60526                0.9681543       -22.31132      0.005375081       -77.33769                0               0                0               0
1.61184                0.9672835       -22.52899      0.005519325          -80.91                0               0                0               0
1.61842                0.9663789       -22.74988      0.005666047       -84.49632                0               0                0               0
1.625                  0.9654393       -22.97401       0.00581517       -88.09495                0               0                0               0
1.63158                0.9644637       -23.20139      0.005966633       -91.70416                0               0                0               0
1.63816                0.9634507       -23.43205      0.006120389       -95.32219                0               0                0               0
1.64474                0.9623998       -23.66599      0.006276414       -98.94729                0               0                0               0
1.65132                0.9613101       -23.90326      0.006434704       -102.5777                0               0                0               0
1.65789                0.9601809       -24.14389      0.006595278       -106.2119                0               0                0               0
1.66447                0.9590114       -24.38791       0.00675818       -109.8481                0               0                0               0
1.67105                0.9578011       -24.63539      0.006923483       -113.4849                0               0                0               0
1.67763                0.9565493       -24.88639      0.007091291       -117.1208                0               0                0               0
1.68421                0.9552554       -25.14098      0.007261736       -120.7546                0               0                0               0
1.69079                0.9539187       -25.39926      0.007434983       -124.3852                0               0                0               0
1.69737                0.9525384       -25.66133      0.007611233       -128.0115                0               0                0               0
1.70395                0.9511137        -25.9273      0.007790717       -131.6328                0               0                0               0
1.71053                0.9496435       -26.19729        0.0079737       -135.2483                0               0                0               0
1.71711                0.9481265       -26.47145      0.008160483       -138.8578                0               0                0               0
1.72368                0.9465613       -26.74993      0.008351399        -142.461                0               0                0               0
1.73026                0.9449462       -27.03288      0.008546816       -146.0578                0               0                0               0
1.73684                0.9432792       -27.32045      0.008747125       -149.6485                0               0                0               0
1.74342                0.9415578       -27.61284      0.008952753       -153.2336                0               0                0               0
1.75                   0.9397796       -27.91021      0.009164152       -156.8137                0               0                0               0
1.75658                0.9379417       -28.21272      0.009381792       -160.3897                0               0                0               0
1.76316                0.9360408       -28.52056      0.009606166       -163.9628                0               0                0               0
1.76974                0.9340734       -28.83391      0.009837784       -167.5343                0               0                0               0
1.77632                0.9320355       -29.15291       0.01007716       -171.1057                0               0                0               0
1.78289                0.9299232       -29.47773       0.01032483       -174.6787                0               0                0               0
1.78947                0.9277316       -29.80851       0.01058131       -178.2551                0               0                0               0
1.79605                0.9254562       -30.14539       0.01084712        178.1629                0               0                0               0
1.80263                0.9230921       -30.48849       0.01112278        174.5734                0               0                0               0
1.80921                0.9206341       -30.83791       0.01140878        170.9741                0               0                0               0
1.81579                0.9180767       -31.19374        0.0117056        167.3629                0               0                0               0
1.82237                0.9154147       -31.55604        0.0120137        163.7373                0               0                0               0
1.82895                0.9126425       -31.92486       0.01233348        160.0953                0               0                0               0
1.83553                0.9097544       -32.30023       0.01266535        156.4347                0               0                0               0
1.84211                 0.906745       -32.68217       0.01300963        152.7531                0               0                0               0
1.84868                0.9036088       -33.07066       0.01336664        149.0487                0               0                0               0
1.85526                0.9003402       -33.46567       0.01373663        145.3196                0               0                0               0
1.86184                0.8969339       -33.86716       0.01411981        141.5638                0               0                0               0
1.86842                 0.893385       -34.27507       0.01451632        137.7798                0               0                0               0
1.875                  0.8896882       -34.68933       0.01492627         133.966                0               0                0               0
1.88158                0.8858387       -35.10983       0.01534971        130.1213                0               0                0               0
1.88816                 0.881832       -35.53647       0.01578662        126.2444                0               0                0               0
1.89474                0.8776638       -35.96917       0.01623693        122.3344                0               0                0               0
1.90132                0.8733298       -36.40778       0.01670052        118.3906                0               0                0               0
1.90789                 0.868826       -36.85219       0.01717721        114.4124                0               0                0               0
1.91447                0.8641489       -37.30227       0.01766676        110.3994                0               0                0               0
1.92105                0.8592947       -37.75789       0.01816889        106.3512                0               0                0               0
1.92763                0.8542602       -38.21894       0.01868325         102.268                0               0                0               0
1.93421                0.8490421       -38.68526       0.01920945        98.14955                0               0                0               0
1.94079                0.8436374       -39.15675       0.01974704        93.99622                0               0                0               0
1.94737                 0.838043       -39.63329       0.02029554        89.80828                0               0                0               0
1.95395                0.8322561       -40.11474       0.02085441        85.58616                0               0                0               0
1.96053                0.8262737         -40.601       0.02142307        81.33037                0               0                0               0
1.96711                0.8200928       -41.09196       0.02200091        77.04154                0               0                0               0
1.97368                0.8137105       -41.58749       0.02258725        72.72033                0               0                0               0
1.98026                0.8071236       -42.08749       0.02318141        68.36751                0               0                0               0
1.98684                 0.800329       -42.59183       0.02378266        63.98389                0               0                0               0
1.99342                0.7933234        -43.1004       0.02439022        59.57032                0               0                0               0
2                      0.7861033       -43.61305       0.02500332        55.12769                0               0                0               0
2.00658                 0.778665       -44.12962       0.02562113        50.65694                0               0                0               0
2.01316                0.7710047       -44.64998       0.02624281        46.15902                0               0                0               0
2.01974                0.7631186       -45.17389       0.02686748        41.63489                0               0                0               0
2.02632                0.7550026       -45.70113       0.02749426        37.08553                0               0                0               0
2.03289                0.7466523       -46.23146       0.02812226        32.51194                0               0                0               0
2.03947                0.7380634       -46.76454       0.02875054        27.91509                0               0                0               0
2.04605                0.7292318       -47.30002       0.02937817        23.29599                0               0                0               0
2.05263                0.7201529       -47.83746       0.03000421        18.65563                0               0                0               0
2.05921                0.7108227       -48.37639        0.0306277        13.99498                0               0                0               0
2.06579                 0.701237       -48.91621        0.0312477        9.315023                0               0                0               0
2.07237                 0.691392       -49.45626       0.03186322        4.616719                0               0                0               0
2.07895                0.6812841       -49.99578       0.03247331     -0.09898023                0               0                0               0
2.08553                0.6709103        -50.5339       0.03307701       -4.831132                0               0                0               0
2.09211                0.6602679       -51.06962       0.03367336       -9.578809                0               0                0               0
2.09868                0.6493552       -51.60181        0.0342614        -14.3411                0               0                0               0
2.10526                0.6381706        -52.1292        0.0348402       -19.11711                0               0                0               0
2.11184                 0.626714       -52.65035        0.0354088       -23.90594                0               0                0               0
2.11842                0.6149859       -53.16364       0.03596629       -28.70673                0               0                0               0
2.125                   0.602988       -53.66728       0.03651177       -33.51862                0               0                0               0
2.13158                0.5907234       -54.15923       0.03704434       -38.34076                0               0                0               0
2.13816                0.5781959       -54.63725       0.03756313       -43.17234                0               0                0               0
2.14474                0.5654115       -55.09885       0.03806729       -48.01252                0               0                0               0
2.15132                 0.552377       -55.54123         0.038556       -52.86051                0               0                0               0
2.15789                0.5391014       -55.96131       0.03902844       -57.71551                0               0                0               0
2.16447                0.5255953       -56.35566       0.03948386       -62.57674                0               0                0               0
2.17105                0.5118709       -56.72046       0.03992151       -67.44343                0               0                0               0
2.17763                0.4979427       -57.05149       0.04034067       -72.31481                0               0                0               0
2.18421                0.4838272       -57.34406       0.04074067       -77.19014                0               0                0               0
2.19079                0.4695431       -57.59295       0.04112086       -82.06866                0               0                0               0
2.19737                0.4551112       -57.79236       0.04148065       -86.94965                0               0                0               0
2.20395                0.4405551       -57.93585       0.04181945       -91.83235                0               0                0               0
2.21053                0.4259009       -58.01624       0.04213675       -96.71606                0               0                0               0
2.21711                0.4111772       -58.02552       0.04243206          -101.6                0               0                0               0
2.22368                0.3964161       -57.95479       0.04270493       -106.4836                0               0                0               0
2.23026                0.3816525       -57.79408       0.04295497        -111.366                0               0                0               0
2.23684                 0.366925       -57.53233       0.04318184       -116.2465                0               0                0               0
2.24342                0.3522759       -57.15718       0.04338521       -121.1245                0               0                0               0
2.25                   0.3377518       -56.65495       0.04356485       -125.9991                0               0                0               0
2.25658                0.3234038       -56.01049       0.04372053       -130.8698                0               0                0               0
2.26316                0.3092883        -55.2071        0.0438521       -135.7357                0               0                0               0
2.26974                0.2954673       -54.22664       0.04395946       -140.5963                0               0                0               0
2.27632                0.2820089       -53.04955       0.04404254       -145.4507                0               0                0               0
2.28289                0.2689884       -51.65521       0.04410134       -150.2983                0               0                0               0
2.28947                 0.256488       -50.02239        0.0441359       -155.1383                0               0                0               0