! TOUCHSTONE file generated by CST MICROWAVE STUDIO
! Date and time: Tue Mar 11 13:56:44 2025
! Project name: transverse.cst
! Parameters = {Fracture=5; B=10; D=160; F=25; Feed=2.85625; L=100; M=30; R=0.384908; S=2; Theta=90; length=57.125; wave=114.25}
! Header version: 2024
! Port assignment regex: !\s*Touchstone port\s*([0-9]+)\s*=\s*(CST MWS port|CST DES external port|CST DES block port)\s*(.+)\s* \(\"(.*)\"\)(\s*mode\s*([0-9]+))?.*
! Touchstone port assignment:
! Touchstone port 1 = CST MWS port 1 ("")
! Touchstone port 2 = CST MWS port 2 ("")
# GHz S MA R 50
1                      0.9975385       -9.750655     0.0004763409        166.0059                0               0                0               0
1.0066                 0.9974797       -9.836421     0.0004759851        160.4262                0               0                0               0
1.0132                 0.9974244        -9.92297     0.0004738909        154.9609                0               0                0               0
1.0198                 0.9973723       -10.01037      0.000470044        149.6204                0               0                0               0
1.0264                 0.9973222       -10.09867     0.0004644435         144.418                0               0                0               0
1.033                  0.9972734       -10.18794     0.0004571039          139.37                0               0                0               0
1.0396                 0.9972246       -10.27821      0.000448058        134.4967                0               0                0               0
1.0462                 0.9971747       -10.36952     0.0004373606         129.823                0               0                0               0
1.05281                0.9971224       -10.46189     0.0004250925        125.3798                0               0                0               0
1.05941                0.9970665       -10.55533      0.000411367        121.2052                0               0                0               0
1.06601                0.9970056       -10.64985     0.0003963377        117.3463                0               0                0               0
1.07261                0.9969386       -10.74543     0.0003802097        113.8608                0               0                0               0
1.07921                0.9968641       -10.84206     0.0003632536        110.8195                0               0                0               0
1.08581                 0.996781       -10.93969     0.0003458243        108.3069                0               0                0               0
1.09241                0.9966886        -11.0383     0.0003283848        106.4212                0               0                0               0
1.09901                 0.996586       -11.13782     0.0003115329        105.2694                0               0                0               0
1.10561                0.9964723       -11.23822     0.0002960268        104.9546                0               0                0               0
1.11221                0.9963473       -11.33942     0.0002827962        105.5505                0               0                0               0
1.11881                0.9962107       -11.44137     0.0002729176        107.0596                0               0                0               0
1.12541                0.9960624       -11.54401     0.0002675239        109.3653                0               0                0               0
1.13201                0.9959025       -11.64727     0.0002676366        112.2021                0               0                0               0
1.13861                0.9957315       -11.75111     0.0002739604        115.1812                0               0                0               0
1.14521                0.9955499       -11.85545     0.0002867327        117.8819                0               0                0               0
1.15182                0.9953582       -11.96027     0.0003057143        119.9609                0               0                0               0
1.15842                0.9951576       -12.06551     0.0003303162         121.218                0               0                0               0
1.16502                0.9949488       -12.17117     0.0003597779        121.5938                0               0                0               0
1.17162                0.9947329       -12.27721     0.0003933125        121.1282                0               0                0               0
1.17822                0.9945112       -12.38364     0.0004301915        119.9122                0               0                0               0
1.18482                0.9942848       -12.49046     0.0004697758        118.0536                0               0                0               0
1.19142                0.9940549        -12.5977     0.0005115175        115.6576                0               0                0               0
1.19802                0.9938225       -12.70538     0.0005549485        112.8179                0               0                0               0
1.20462                0.9935887       -12.81355     0.0005996648        109.6141                0               0                0               0
1.21122                0.9933545       -12.92227     0.0006453128        106.1126                0               0                0               0
1.21782                0.9931206        -13.0316     0.0006915778        102.3679                0               0                0               0
1.22442                0.9928877       -13.14161     0.0007381743        98.42481                0               0                0               0
1.23102                0.9926561        -13.2524       0.00078484        94.32016                0               0                0               0
1.23762                0.9924263       -13.36403     0.0008313307        90.08436                0               0                0               0
1.24422                0.9921981        -13.4766     0.0008774167        85.74275                0               0                0               0
1.25083                0.9919714        -13.5902     0.0009228804        81.31661                0               0                0               0
1.25743                0.9917458       -13.70492     0.0009675151        76.82404                0               0                0               0
1.26403                0.9915204       -13.82084      0.001011124        72.28059                0               0                0               0
1.27063                0.9912948       -13.93804      0.001053519         67.6998                0               0                0               0
1.27723                0.9910676        -14.0566      0.001094522        63.09363                0               0                0               0
1.28383                0.9908379       -14.17658      0.001133966        58.47281                0               0                0               0
1.29043                0.9906042       -14.29803      0.001171691        53.84711                0               0                0               0
1.29703                0.9903652       -14.42099      0.001207552        49.22557                0               0                0               0
1.30363                0.9901195       -14.54549      0.001241413        44.61668                0               0                0               0
1.31023                0.9898655       -14.67156      0.001273154        40.02856                0               0                0               0
1.31683                0.9896017        -14.7992      0.001302668        35.46911                0               0                0               0
1.32343                0.9893268       -14.92839      0.001329866        30.94609                0               0                0               0
1.33003                0.9890394       -15.05912      0.001354676        26.46724                0               0                0               0
1.33663                0.9887382       -15.19137      0.001377047        22.04038                0               0                0               0
1.34323                0.9884223       -15.32508      0.001396952        17.67346                0               0                0               0
1.34984                0.9880907       -15.46022      0.001414386        13.37467                0               0                0               0
1.35644                0.9877428       -15.59672      0.001429376        9.152408                0               0                0               0
1.36304                 0.987378       -15.73454      0.001441975        5.015396                0               0                0               0
1.36964                0.9869962       -15.87362      0.001452274       0.9726319                0               0                0               0
1.37624                0.9865975       -16.01389        0.0014604       -2.966611                0               0                0               0
1.38284                0.9861819       -16.15531      0.001466522       -6.792843                0               0                0               0
1.38944                0.9857499       -16.29783      0.001470852       -10.49646                0               0                0               0
1.39604                0.9853022       -16.44139      0.001473653       -14.06791                0               0                0               0
1.40264                0.9848398       -16.58598      0.001475238       -17.49794                0               0                0               0
1.40924                0.9843634       -16.73157      0.001475976       -20.77788                0               0                0               0
1.41584                0.9838743       -16.87816      0.001476295       -23.90014                0               0                0               0
1.42244                0.9833736       -17.02575       0.00147668       -26.85865                0               0                0               0
1.42904                0.9828627       -17.17436      0.001477671       -29.64956                0               0                0               0
1.43564                0.9823426       -17.32404      0.001479864        -32.2719                0               0                0               0
1.44224                0.9818147       -17.47483      0.001483901       -34.72834                0               0                0               0
1.44884                0.9812799       -17.62681      0.001490458       -37.02586                0               0                0               0
1.45545                0.9807394       -17.78007      0.001500233       -39.17634                0               0                0               0
1.46205                0.9801938       -17.93469      0.001513925       -41.19681                0               0                0               0
1.46865                0.9796439       -18.09079      0.001532212       -43.10941                0               0                0               0
1.47525                0.9790899       -18.24849      0.001555726       -44.94081                0               0                0               0
1.48185                0.9785321       -18.40792      0.001585032       -46.72125                0               0                0               0
1.48845                0.9779701        -18.5692      0.001620604       -48.48304                0               0                0               0
1.49505                0.9774036       -18.73248      0.001662812       -50.25895                0               0                0               0
1.50165                0.9768317       -18.89789      0.001711905       -52.08042                0               0                0               0
1.50825                0.9762534       -19.06557      0.001768017       -53.97601                0               0                0               0
1.51485                0.9756675       -19.23563      0.001831161       -55.97012                0               0                0               0
1.52145                0.9750723       -19.40821      0.001901248       -58.08231                0               0                0               0
1.52805                 0.974466       -19.58342      0.001978094        -60.3269                0               0                0               0
1.53465                0.9738465       -19.76134      0.002061438       -62.71318                0               0                0               0
1.54125                0.9732117       -19.94207      0.002150957       -65.24579                0               0                0               0
1.54785                0.9725592       -20.12567      0.002246284        -67.9254                0               0                0               0
1.55446                0.9718866       -20.31221      0.002347017       -70.74944                0               0                0               0
1.56106                0.9711915       -20.50171      0.002452735       -73.71279                0               0                0               0
1.56766                0.9704716       -20.69419      0.002563008       -76.80852                0               0                0               0
1.57426                0.9697244       -20.88966      0.002677398       -80.02841                0               0                0               0
1.58086                0.9689477       -21.08811      0.002795474       -83.36347                0               0                0               0
1.58746                0.9681397       -21.28951      0.002916807       -86.80432                0               0                0               0
1.59406                0.9672983       -21.49382      0.003040984       -90.34144                0               0                0               0
1.60066                0.9664219       -21.70099        0.0031676       -93.96544                0               0                0               0
1.60726                0.9655094       -21.91097      0.003296269       -97.66716                0               0                0               0
1.61386                0.9645595        -22.1237      0.003426619       -101.4378                0               0                0               0
1.62046                0.9635716       -22.33911      0.003558299       -105.2689                0               0                0               0
1.62706                0.9625453       -22.55716      0.003690978       -109.1524                0               0                0               0
1.63366                0.9614804       -22.77778      0.003824346       -113.0809                0               0                0               0
1.64026                0.9603771       -23.00093      0.003958115       -117.0472                0               0                0               0
1.64686                0.9592357       -23.22659      0.004092027       -121.0447                0               0                0               0
1.65347                0.9580572       -23.45472      0.004225845       -125.0669                0               0                0               0
1.66007                0.9568421       -23.68533      0.004359364       -129.1081                0               0                0               0
1.66667                0.9555915       -23.91844      0.004492408       -133.1626                0               0                0               0
1.67327                0.9543068       -24.15408      0.004624837       -137.2253                0               0                0               0
1.67987                0.9529889       -24.39233       0.00475654       -141.2912                0               0                0               0
1.68647                0.9516389       -24.63326      0.004887447        -145.356                0               0                0               0
1.69307                0.9502581         -24.877      0.005017528       -149.4153                0               0                0               0
1.69967                0.9488473       -25.12368      0.005146792       -153.4652                0               0                0               0
1.70627                0.9474073       -25.37346      0.005275291        -157.502                0               0                0               0
1.71287                0.9459385       -25.62654      0.005403124       -161.5225                0               0                0               0
1.71947                0.9444412        -25.8831      0.005530438       -165.5236                0               0                0               0
1.72607                0.9429152       -26.14338      0.005657428       -169.5026                0               0                0               0
1.73267                0.9413598       -26.40761      0.005784339       -173.4573                0               0                0               0
1.73927                0.9397741       -26.67606      0.005911465       -177.3857                0               0                0               0
1.74587                0.9381565       -26.94897      0.006039155        178.7139                0               0                0               0
1.75248                0.9365052       -27.22663      0.006167807        174.8427                0               0                0               0
1.75908                0.9348176        -27.5093      0.006297869        171.0013                0               0                0               0
1.76568                0.9330908       -27.79726      0.006429838          167.19                0               0                0               0
1.77228                0.9313215       -28.09075      0.006564256        163.4088                0               0                0               0
1.77888                0.9295058       -28.39005      0.006701709        159.6568                0               0                0               0
1.78548                0.9276398       -28.69538      0.006842822        155.9329                0               0                0               0
1.79208                0.9257185       -29.00699      0.006988248        152.2354                0               0                0               0
1.79868                0.9237371       -29.32508      0.007138671        148.5621                0               0                0               0
1.80528                0.9216907       -29.64985      0.007294795        144.9103                0               0                0               0
1.81188                0.9195736       -29.98146      0.007457331        141.2768                0               0                0               0
1.81848                0.9173806       -30.32006      0.007626998        137.6579                0               0                0               0
1.82508                0.9151061        -30.6658      0.007804507        134.0498                0               0                0               0
1.83168                0.9127443       -31.01876      0.007990551         130.448                0               0                0               0
1.83828                0.9102898       -31.37905      0.008185803         126.848                0               0                0               0
1.84488                0.9077372       -31.74674      0.008390901        123.2451                0               0                0               0
1.85149                0.9050809       -32.12188      0.008606438        119.6344                0               0                0               0
1.85809                0.9023158       -32.50453       0.00883296        116.0112                0               0                0               0
1.86469                 0.899437        -32.8947      0.009070955        112.3706                0               0                0               0
1.87129                0.8964397       -33.29244      0.009320847        108.7081                0               0                0               0
1.87789                0.8933194       -33.69777      0.009582992        105.0192                0               0                0               0
1.88449                0.8900715       -34.11073      0.009857676           101.3                0               0                0               0
1.89109                0.8866921       -34.53135       0.01014511        97.54677                0               0                0               0
1.89769                0.8831771       -34.95967       0.01044543         93.7561                0               0                0               0
1.90429                0.8795228       -35.39577       0.01075869        89.92511                0               0                0               0
1.91089                0.8757253        -35.8397       0.01108487        86.05133                0               0                0               0
1.91749                0.8717809       -36.29159        0.0114239        82.13271                0               0                0               0
1.92409                0.8676859       -36.75155        0.0117756        78.16763                0               0                0               0
1.93069                0.8634364       -37.21971       0.01213976         74.1549                0               0                0               0
1.93729                0.8590283       -37.69627       0.01251607         70.0937                0               0                0               0
1.94389                0.8544573       -38.18141       0.01290418         65.9836                0               0                0               0
1.9505                 0.8497188       -38.67536       0.01330368        61.82448                0               0                0               0
1.9571                 0.8448077       -39.17836       0.01371412        57.61653                0               0                0               0
1.9637                 0.8397182       -39.69069       0.01413496        53.36021                0               0                0               0
1.9703                 0.8344445       -40.21264       0.01456565         49.0562                0               0                0               0
1.9769                 0.8289796       -40.74451        0.0150056        44.70539                0               0                0               0
1.9835                 0.8233162       -41.28661       0.01545415        40.30884                0               0                0               0
1.9901                 0.8174461       -41.83926       0.01591064        35.86774                0               0                0               0
1.9967                 0.8113604       -42.40276       0.01637435        31.38338                0               0                0               0
2.0033                 0.8050496       -42.97743       0.01684456        26.85716                0               0                0               0
2.0099                 0.7985034       -43.56355        0.0173205        22.29053                0               0                0               0
2.0165                 0.7917107       -44.16137       0.01780139          17.685                0               0                0               0
2.0231                   0.78466       -44.77112       0.01828643        13.04209                0               0                0               0
2.0297                  0.777339       -45.39298        0.0187748        8.363363                0               0                0               0
2.0363                  0.769735       -46.02706       0.01926566        3.650359                0               0                0               0
2.0429                 0.7618351       -46.67343       0.01975818       -1.095372                0               0                0               0
2.0495                 0.7536256       -47.33205       0.02025151       -5.872301                0               0                0               0
2.05611                0.7450933       -48.00286       0.02074476       -10.67892                0               0                0               0
2.06271                0.7362245       -48.68564       0.02123709       -15.51374                0               0                0               0
2.06931                0.7270059       -49.38009       0.02172762       -20.37531                0               0                0               0
2.07591                0.7174245       -50.08581       0.02221549       -25.26221                0               0                0               0
2.08251                0.7074677       -50.80226       0.02269981       -30.17305                0               0                0               0
2.08911                0.6971237       -51.52877       0.02317973        -35.1065                0               0                0               0
2.09571                0.6863812       -52.26452       0.02365439       -40.06123                0               0                0               0
2.10231                0.6752306       -53.00855       0.02412292       -45.03598                0               0                0               0
2.10891                0.6636626        -53.7597        0.0245845       -50.02952                0               0                0               0
2.11551                0.6516699       -54.51667       0.02503827       -55.04065                0               0                0               0
2.12211                0.6392467       -55.27791       0.02548343       -60.06822                0               0                0               0
2.12871                0.6263886       -56.04169       0.02591916       -65.11109                0               0                0               0
2.13531                0.6130933       -56.80604       0.02634468       -70.16818                0               0                0               0
2.14191                0.5993603       -57.56872        0.0267592       -75.23844                0               0                0               0
2.14851                0.5851914        -58.3272       0.02716199       -80.32084                0               0                0               0
2.15512                0.5705905       -59.07863        0.0275523       -85.41438                0               0                0               0
2.16172                 0.555564       -59.81983       0.02792943       -90.51811                0               0                0               0
2.16832                0.5401206       -60.54716       0.02829268       -95.63108                0               0                0               0
2.17492                0.5242719       -61.25656       0.02864142       -100.7524                0               0                0               0
2.18152                0.5080319       -61.94339         0.028975       -105.8811                0               0                0               0
2.18812                0.4914174       -62.60241       0.02929282       -111.0164                0               0                0               0
2.19472                0.4744481       -63.22766       0.02959432       -116.1574                0               0                0               0
2.20132                 0.457147       -63.81228       0.02987894       -121.3033                0               0                0               0
2.20792                0.4395399       -64.34839        0.0301462       -126.4532                0               0                0               0
2.21452                0.4216562       -64.82688        0.0303956       -131.6065                0               0                0               0
2.22112                0.4035286       -65.23712       0.03062672       -136.7622                0               0                0               0
2.22772                0.3851941       -65.56667       0.03083916       -141.9196                0               0                0               0
2.23432                0.3666938       -65.80084       0.03103255       -147.0779                0               0                0               0
2.24092                0.3480735       -65.92214       0.03120656       -152.2364                0               0                0               0
2.24752                0.3293851       -65.90968       0.03136092       -157.3943                0               0                0               0
2.25413                0.3106869       -65.73821       0.03149537        -162.551                0               0                0               0
2.26073                0.2920456       -65.37711        0.0316097       -167.7055                0               0                0               0
2.26733                 0.273538       -64.78896       0.03170376       -172.8573                0               0                0               0
2.27393                0.2552539       -63.92789       0.03177742       -178.0056                0               0                0               0
2.28053                0.2372997       -62.73753        0.0318306        176.8505                0               0                0               0
2.28713                0.2198038       -61.14878       0.03186325        171.7115                0               0                0               0
2.29373                0.2029229       -59.07775       0.03187539        166.5782                0               0                0               0