! TOUCHSTONE file generated by CST MICROWAVE STUDIO
! Date and time: Tue Mar 11 13:57:49 2025
! Project name: transverse.cst
! Parameters = {Fracture=5; B=12.5; D=160; F=25; Feed=2.85625; L=100; M=30; R=0.384908; S=2; Theta=180; length=57.125; wave=114.25}
! Header version: 2024
! Port assignment regex: !\s*Touchstone port\s*([0-9]+)\s*=\s*(CST MWS port|CST DES external port|CST DES block port)\s*(.+)\s* \(\"(.*)\"\)(\s*mode\s*([0-9]+))?.*
! Touchstone port assignment:
! Touchstone port 1 = CST MWS port 1 ("")
! Touchstone port 2 = CST MWS port 2 ("")
# GHz S MA R 50
1                      0.9975585       -9.767701     0.0004444794        166.0518                0               0                0               0
1.00658                0.9974963       -9.853566     0.0004458473        160.6667                0               0                0               0
1.01316                0.9974375       -9.940174     0.0004457013        155.3927                0               0                0               0
1.01974                0.9973812       -10.02759     0.0004440301          150.24                0               0                0               0
1.02632                 0.997327       -10.11587     0.0004408352        145.2209                0               0                0               0
1.03289                 0.997274       -10.20507     0.0004361321        140.3504                0               0                0               0
1.03947                0.9972211       -10.29522     0.0004299532        135.6464                0               0                0               0
1.04605                0.9971675       -10.38637     0.0004223508        131.1307                0               0                0               0
1.05263                0.9971118       -10.47855     0.0004134003        126.8291                0               0                0               0
1.05921                0.9970528       -10.57176     0.0004032055        122.7727                0               0                0               0
1.06579                0.9969896       -10.66601     0.0003919045        118.9984                0               0                0               0
1.07237                0.9969207        -10.7613     0.0003796771        115.5498                0               0                0               0
1.07895                0.9968453       -10.85762     0.0003667546        112.4776                0               0                0               0
1.08553                0.9967622       -10.95494     0.0003534307        109.8396                0               0                0               0
1.09211                0.9966706       -11.05323     0.0003400752        107.6986                0               0                0               0
1.09868                0.9965693       -11.15245     0.0003271463         106.119                0               0                0               0
1.10526                 0.996458       -11.25255     0.0003152018        105.1578                0               0                0               0
1.11184                0.9963362       -11.35348     0.0003048999        104.8517                0               0                0               0
1.11842                0.9962033        -11.4552     0.0002969824        105.1977                0               0                0               0
1.125                  0.9960593       -11.55763     0.0002922303        106.1324                0               0                0               0
1.13158                0.9959042       -11.66073     0.0002913859         107.517                0               0                0               0
1.13816                0.9957382       -11.76445     0.0002950533         109.142                0               0                0               0
1.14474                0.9955619       -11.86873     0.0003036055        110.7562                0               0                0               0
1.15132                0.9953756       -11.97354      0.000317136        112.1147                0               0                0               0
1.15789                0.9951802       -12.07882     0.0003354732        113.0232                0               0                0               0
1.16447                0.9949764       -12.18457     0.0003582463        113.3615                0               0                0               0
1.17105                0.9947651       -12.29074     0.0003849691        113.0826                0               0                0               0
1.17763                0.9945475       -12.39735     0.0004151151        112.1955                0               0                0               0
1.18421                0.9943244       -12.50439     0.0004481669        110.7437                0               0                0               0
1.19079                0.9940972       -12.61187     0.0004836429        108.7881                0               0                0               0
1.19737                0.9938668       -12.71982     0.0005211076        106.3937                0               0                0               0
1.20395                 0.993634       -12.82828     0.0005601707        103.6238                0               0                0               0
1.21053                0.9933999       -12.93729     0.0006004831        100.5354                0               0                0               0
1.21711                0.9931653       -13.04691     0.0006417308        97.17905                0               0                0               0
1.22368                0.9929307       -13.15721     0.0006836282        93.59815                0               0                0               0
1.23026                0.9926967       -13.26826     0.0007259135        89.82984                0               0                0               0
1.23684                0.9924636       -13.38013     0.0007683438        85.90574                0               0                0               0
1.24342                0.9922316       -13.49291     0.0008106925        81.85283                0               0                0               0
1.25                   0.9920005       -13.60669     0.0008527459        77.69414                0               0                0               0
1.25658                0.9917701       -13.72154     0.0008943021        73.44949                0               0                0               0
1.26316                0.9915397       -13.83756     0.0009351695        69.13608                0               0                0               0
1.26974                0.9913088       -13.95481     0.0009751666        64.76892                0               0                0               0
1.27632                0.9910764       -14.07337      0.001014121         60.3613                0               0                0               0
1.28289                0.9908417       -14.19332       0.00105187        55.92509                0               0                0               0
1.28947                0.9906032       -14.31469       0.00108826        51.47105                0               0                0               0
1.29605                  0.99036       -14.43755       0.00112315        47.00904                0               0                0               0
1.30263                0.9901103       -14.56193      0.001156406        42.54823                0               0                0               0
1.30921                 0.989853       -14.68785      0.001187911        38.09729                0               0                0               0
1.31579                0.9895865       -14.81533      0.001217557        33.66449                0               0                0               0
1.32237                0.9893096       -14.94436      0.001245254        29.25787                0               0                0               0
1.32895                0.9890209       -15.07495      0.001270925        24.88531                0               0                0               0
1.33553                0.9887189       -15.20706      0.001294514        20.55462                0               0                0               0
1.34211                0.9884028       -15.34067      0.001315982        16.27365                0               0                0               0
1.34868                0.9880715       -15.47574      0.001335314         12.0503                0               0                0               0
1.35526                0.9877242       -15.61222      0.001352516        7.892649                0               0                0               0
1.36184                0.9873601       -15.75006      0.001367625        3.808885                0               0                0               0
1.36842                0.9869791       -15.88921      0.001380703      -0.1926105                0               0                0               0
1.375                  0.9865809       -16.02963      0.001391848       -4.103308                0               0                0               0
1.38158                0.9861657       -16.17124       0.00140119        -7.91456                0               0                0               0
1.38816                0.9857332         -16.314      0.001408899       -11.61769                0               0                0               0
1.39474                0.9852846       -16.45787      0.001415186       -15.20413                0               0                0               0
1.40132                0.9848199       -16.60282      0.001420305       -18.66558                0               0                0               0
1.40789                0.9843402       -16.74882       0.00142456       -21.99428                0               0                0               0
1.41447                0.9838465       -16.89585      0.001428301       -25.18334                0               0                0               0
1.42105                0.9833397        -17.0439      0.001431927       -28.22712                0               0                0               0
1.42763                0.9828209         -17.193       0.00143589       -31.12173                0               0                0               0
1.43421                0.9822914       -17.34317      0.001440685       -33.86556                0               0                0               0
1.44079                0.9817519       -17.49444      0.001446853       -36.45987                0               0                0               0
1.44737                 0.981204       -17.64688      0.001454967       -38.90931                0               0                0               0
1.45395                0.9806484       -17.80055      0.001465626       -41.22244                0               0                0               0
1.46053                0.9800861       -17.95553      0.001479439       -43.41199                0               0                0               0
1.46711                0.9795176       -18.11191      0.001497011       -45.49499                0               0                0               0
1.47368                0.9789435       -18.26982      0.001518919       -47.49242                0               0                0               0
1.48026                0.9783639       -18.42936      0.001545701       -49.42872                0               0                0               0
1.48684                0.9777789       -18.59064      0.001577831       -51.33072                0               0                0               0
1.49342                0.9771884       -18.75381      0.001615705       -53.22649                0               0                0               0
1.5                    0.9765916       -18.91898      0.001659631       -55.14399                0               0                0               0
1.50658                0.9759879       -19.08629      0.001709818       -57.10969                0               0                0               0
1.51316                0.9753762       -19.25585      0.001766381       -59.14741                0               0                0               0
1.51974                 0.974755        -19.4278      0.001829334       -61.27745                0               0                0               0
1.52632                0.9741227       -19.60224      0.001898609       -63.51602                0               0                0               0
1.53289                0.9734776       -19.77927      0.001974059       -65.87508                0               0                0               0
1.53947                0.9728178       -19.95897      0.002055472       -68.36243                0               0                0               0
1.54605                 0.972141       -20.14144      0.002142583       -70.98208                0               0                0               0
1.55263                0.9714449       -20.32673      0.002235086       -73.73474                0               0                0               0
1.55921                0.9707275       -20.51488      0.002332648       -76.61842                0               0                0               0
1.56579                0.9699861       -20.70592      0.002434911       -79.62893                0               0                0               0
1.57237                0.9692188       -20.89988      0.002541509       -82.76052                0               0                0               0
1.57895                0.9684233       -21.09673      0.002652069       -86.00625                0               0                0               0
1.58553                0.9675974       -21.29648      0.002766213       -89.35847                0               0                0               0
1.59211                0.9667394        -21.4991      0.002883573       -92.80907                0               0                0               0
1.59868                0.9658474       -21.70454      0.003003783       -96.34981                0               0                0               0
1.60526                0.9649201       -21.91275      0.003126486       -99.97243                0               0                0               0
1.61184                0.9639564       -22.12368      0.003251342       -103.6688                0               0                0               0
1.61842                0.9629551       -22.33728      0.003378016       -107.4312                0               0                0               0
1.625                  0.9619159       -22.55348      0.003506195       -111.2519                0               0                0               0
1.63158                0.9608383       -22.77224       0.00363558       -115.1238                0               0                0               0
1.63816                0.9597224        -22.9935      0.003765889         -119.04                0               0                0               0
1.64474                0.9585685       -23.21721      0.003896862        -122.994                0               0                0               0
1.65132                 0.957377       -23.44337      0.004028257       -126.9798                0               0                0               0
1.65789                0.9561486       -23.67195      0.004159858       -130.9915                0               0                0               0
1.66447                0.9548843       -23.90296      0.004291472       -135.0237                0               0                0               0
1.67105                0.9535853       -24.13643      0.004422932       -139.0714                0               0                0               0
1.67763                0.9522524        -24.3724        0.0045541       -143.1296                0               0                0               0
1.68421                 0.950887       -24.61094      0.004684866        -147.194                0               0                0               0
1.69079                0.9494902       -24.85215      0.004815154       -151.2603                0               0                0               0
1.69737                 0.948063       -25.09615       0.00494492       -155.3245                0               0                0               0
1.70395                0.9466064       -25.34308      0.005074156       -159.3831                0               0                0               0
1.71053                0.9451209       -25.59311      0.005202891       -163.4327                0               0                0               0
1.71711                0.9436069       -25.84643      0.005331193       -167.4702                0               0                0               0
1.72368                0.9420648       -26.10325      0.005459173       -171.4928                0               0                0               0
1.73026                0.9404941       -26.36378      0.005586979       -175.4979                0               0                0               0
1.73684                 0.938894       -26.62829      0.005714806       -179.4834                0               0                0               0
1.74342                0.9372636       -26.89702      0.005842892        176.5526                0               0                0               0
1.75                   0.9356013       -27.17024      0.005971516        172.6117                0               0                0               0
1.75658                 0.933905       -27.44821      0.006101008        168.6951                0               0                0               0
1.76316                 0.932172        -27.7312      0.006231732        164.8037                0               0                0               0
1.76974                0.9303997       -28.01948      0.006364104        160.9378                0               0                0               0
1.77632                0.9285842       -28.31331      0.006498572        157.0976                0               0                0               0
1.78289                 0.926722       -28.61293      0.006635627        153.2827                0               0                0               0
1.78947                0.9248085        -28.9186      0.006775791        149.4922                0               0                0               0
1.79605                0.9228393       -29.23052      0.006919621         145.725                0               0                0               0
1.80263                0.9208096        -29.5489      0.007067697        141.9794                0               0                0               0
1.80921                0.9187139       -29.87392      0.007220618        138.2533                0               0                0               0
1.81579                0.9165471       -30.20576      0.007378998        134.5442                0               0                0               0
1.82237                0.9143037       -30.54455       0.00754346        130.8493                0               0                0               0
1.82895                0.9119782        -30.8904      0.007714624        127.1654                0               0                0               0
1.83553                0.9095652       -31.24343      0.007893105        123.4888                0               0                0               0
1.84211                0.9070591        -31.6037        0.0080795        119.8159                0               0                0               0
1.84868                0.9044546       -31.97129      0.008274387        116.1427                0               0                0               0
1.85526                0.9017465       -32.34623      0.008478311        112.4651                0               0                0               0
1.86184                0.8989299       -32.72857      0.008691777         108.779                0               0                0               0
1.86842                    0.896       -33.11832      0.008915254        105.0802                0               0                0               0
1.875                  0.8929523       -33.51552      0.009149153        101.3645                0               0                0               0
1.88158                0.8897825       -33.92019      0.009393834        97.62819                0               0                0               0
1.88816                0.8864865       -34.33234        0.0096496        93.86737                0               0                0               0
1.89474                0.8830606       -34.75202      0.009916687        90.07858                0               0                0               0
1.90132                0.8795012       -35.17927       0.01019527        86.25858                0               0                0               0
1.90789                0.8758047       -35.61415       0.01048546        82.40447                0               0                0               0
1.91447                0.8719679       -36.05676        0.0107873        78.51368                0               0                0               0
1.92105                0.8679874       -36.50718       0.01110077          74.584                0               0                0               0
1.92763                0.8638598       -36.96555       0.01142578        70.61358                0               0                0               0
1.93421                0.8595818       -37.43204       0.01176218        66.60093                0               0                0               0
1.94079                0.8551496       -37.90684       0.01210975        62.54489                0               0                0               0
1.94737                0.8505594       -38.39016       0.01246824        58.44465                0               0                0               0
1.95395                0.8458068       -38.88225       0.01283731        54.29972                0               0                0               0
1.96053                0.8408871        -39.3834        0.0132166        50.10987                0               0                0               0
1.96711                0.8357952       -39.89391       0.01360567        45.87514                0               0                0               0
1.97368                0.8305252       -40.41411       0.01400405        41.59583                0               0                0               0
1.98026                0.8250705       -40.94434       0.01441124        37.27244                0               0                0               0
1.98684                 0.819424       -41.48498       0.01482667        32.90562                0               0                0               0
1.99342                0.8135776       -42.03639       0.01524977        28.49621                0               0                0               0
2                      0.8075224       -42.59895        0.0156799        24.04519                0               0                0               0
2.00658                0.8012491       -43.17301       0.01611642        19.55361                0               0                0               0
2.01316                 0.794747       -43.75894       0.01655865        15.02265                0               0                0               0
2.01974                0.7880053       -44.35706       0.01700589        10.45353                0               0                0               0
2.02632                0.7810118       -44.96768       0.01745741        5.847545                0               0                0               0
2.03289                0.7737541       -45.59104       0.01791246        1.206012                0               0                0               0
2.03947                0.7662192       -46.22735        0.0183703       -3.469719                0               0                0               0
2.04605                0.7583932       -46.87677       0.01883014       -8.178284                0               0                0               0
2.05263                0.7502623       -47.53935       0.01929121       -12.91832                0               0                0               0
2.05921                0.7418122        -48.2151        0.0197527       -17.68845                0               0                0               0
2.06579                0.7330287       -48.90391       0.02021381       -22.48734                0               0                0               0
2.07237                0.7238975       -49.60557       0.02067374       -27.31364                0               0                0               0
2.07895                0.7144045       -50.31979       0.02113167       -32.16604                0               0                0               0
2.08553                0.7045362       -51.04611       0.02158679       -37.04323                0               0                0               0
2.09211                0.6942795       -51.78399       0.02203829       -41.94396                0               0                0               0
2.09868                0.6836223       -52.53271       0.02248536       -46.86699                0               0                0               0
2.10526                0.6725531       -53.29141        0.0229272        -51.8111                0               0                0               0
2.11184                 0.661062       -54.05904         0.023363       -56.77513                0               0                0               0
2.11842                0.6491399       -54.83443       0.02379198       -61.75791                0               0                0               0
2.125                  0.6367797       -55.61615       0.02421336       -66.75834                0               0                0               0
2.13158                0.6239756       -56.40259       0.02462636       -71.77532                0               0                0               0
2.13816                0.6107238       -57.19191       0.02503023       -76.80781                0               0                0               0
2.14474                0.5970224       -57.98203       0.02542424       -81.85478                0               0                0               0
2.15132                0.5828718       -58.77055       0.02580765       -86.91523                0               0                0               0
2.15789                0.5682742        -59.5548       0.02617976       -91.98818                0               0                0               0
2.16447                0.5532346       -60.33174       0.02653988        -97.0727                0               0                0               0
2.17105                0.5377602       -61.09792       0.02688736       -102.1679                0               0                0               0
2.17763                0.5218611       -61.84948       0.02722155       -107.2728                0               0                0               0
2.18421                0.5055496       -62.58198       0.02754183       -112.3865                0               0                0               0
2.19079                0.4888412       -63.29039        0.0278476       -117.5084                0               0                0               0
2.19737                 0.471754       -63.96897       0.02813831       -122.6373                0               0                0               0
2.20395                0.4543094        -64.6111       0.02841342       -127.7727                0               0                0               0
2.21053                0.4365316       -65.20913       0.02867242       -132.9136                0               0                0               0
2.21711                0.4184482       -65.75418       0.02891484       -138.0593                0               0                0               0
2.22368                0.4000905       -66.23585       0.02914022        -143.209                0               0                0               0
2.23026                0.3814933       -66.64183       0.02934816        -148.362                0               0                0               0
2.23684                0.3626959       -66.95754       0.02953829       -153.5175                0               0                0               0
2.24342                0.3437422       -67.16544       0.02971025       -158.6747                0               0                0               0
2.25                   0.3246817       -67.24432       0.02986375        -163.833                0               0                0               0
2.25658                0.3055704       -67.16832        0.0299985       -168.9916                0               0                0               0
2.26316                0.2864724       -66.90553       0.03011428       -174.1497                0               0                0               0
2.26974                0.2674621       -66.41635       0.03021089       -179.3068                0               0                0               0
2.27632                 0.248627       -65.65121       0.03028817        175.5381                0               0                0               0
2.28289                0.2300719       -64.54773       0.03034601        170.3854                0               0                0               0
2.28947                0.2119252       -63.02716       0.03038432        165.2361                0               0                0               0