! TOUCHSTONE file generated by CST MICROWAVE STUDIO
! Date and time: Tue Mar 11 13:56:37 2025
! Project name: transverse.cst
! Parameters = {Fracture=5; B=10; D=160; F=15; Feed=2.85625; L=100; M=20; R=0.384908; S=1; Theta=90; length=57.125; wave=114.25}
! Header version: 2024
! Port assignment regex: !\s*Touchstone port\s*([0-9]+)\s*=\s*(CST MWS port|CST DES external port|CST DES block port)\s*(.+)\s* \(\"(.*)\"\)(\s*mode\s*([0-9]+))?.*
! Touchstone port assignment:
! Touchstone port 1 = CST MWS port 1 ("")
! Touchstone port 2 = CST MWS port 2 ("")
# GHz S MA R 50
1                      0.9977429       -9.750025     0.0004118604        -159.256                0               0                0               0
1.00658                0.9976432       -9.837333     0.0004151523       -163.9102                0               0                0               0
1.01316                0.9975405       -9.924951     0.0004171273       -168.4392                0               0                0               0
1.01974                0.9974357       -10.01288     0.0004177887       -172.8293                0               0                0               0
1.02632                0.9973295       -10.10113     0.0004171569       -177.0646                0               0                0               0
1.03289                0.9972226       -10.18973     0.0004152718         178.873                0               0                0               0
1.03947                0.9971159       -10.27869      0.000412196        175.0044                0               0                0               0
1.04605                0.9970097       -10.36805     0.0004080195        171.3533                0               0                0               0
1.05263                0.9969049       -10.45786     0.0004028641        167.9463                0               0                0               0
1.05921                0.9968018       -10.54817     0.0003968889         164.813                0               0                0               0
1.06579                0.9967008       -10.63901     0.0003902966        161.9853                0               0                0               0
1.07237                0.9966021       -10.73046     0.0003833402        159.4963                0               0                0               0
1.07895                0.9965056       -10.82257     0.0003763292        157.3786                0               0                0               0
1.08553                0.9964115       -10.91539     0.0003696346        155.6608                0               0                0               0
1.09211                0.9963194         -11.009     0.0003636906        154.3632                0               0                0               0
1.09868                0.9962289       -11.10344     0.0003589901        153.4908                0               0                0               0
1.10526                0.9961396       -11.19877     0.0003560709        153.0273                0               0                0               0
1.11184                0.9960508       -11.29505     0.0003554908        152.9278                0               0                0               0
1.11842                0.9959617       -11.39231     0.0003577904        153.1158                0               0                0               0
1.125                  0.9958716        -11.4906     0.0003634476        153.4856                0               0                0               0
1.13158                0.9957794       -11.58995      0.000372834        153.9119                0               0                0               0
1.13816                0.9956842       -11.69037     0.0003861816        154.2642                0               0                0               0
1.14474                 0.995585       -11.79188     0.0004035705        154.4238                0               0                0               0
1.15132                0.9954809       -11.89449     0.0004249386        154.2968                0               0                0               0
1.15789                0.9953708       -11.99819     0.0004501076        153.8201                0               0                0               0
1.16447                0.9952538       -12.10297     0.0004788167        152.9617                0               0                0               0
1.17105                0.9951291       -12.20882     0.0005107558        151.7156                0               0                0               0
1.17763                 0.994996        -12.3157     0.0005455919        150.0946                0               0                0               0
1.18421                0.9948538       -12.42359      0.000582988        148.1238                0               0                0               0
1.19079                0.9947021       -12.53244     0.0006226145        145.8348                0               0                0               0
1.19737                0.9945406       -12.64223     0.0006641557        143.2616                0               0                0               0
1.20395                0.9943691       -12.75291     0.0007073118        140.4381                0               0                0               0
1.21053                0.9941874       -12.86444     0.0007517995        137.3966                0               0                0               0
1.21711                0.9939959       -12.97678     0.0007973507        134.1668                0               0                0               0
1.22368                0.9937949        -13.0899     0.0008437115        130.7757                0               0                0               0
1.23026                0.9935846       -13.20378     0.0008906408        127.2472                0               0                0               0
1.23684                0.9933658       -13.31838     0.0009379089        123.6031                0               0                0               0
1.24342                 0.993139       -13.43369     0.0009852969        119.8626                0               0                0               0
1.25                   0.9929051        -13.5497      0.001032596        116.0427                0               0                0               0
1.25658                0.9926649       -13.66643      0.001079607        112.1587                0               0                0               0
1.26316                 0.992419       -13.78387       0.00112614        108.2246                0               0                0               0
1.26974                0.9921685       -13.90206      0.001172016        104.2528                0               0                0               0
1.27632                0.9919141       -14.02102      0.001217067        100.2547                0               0                0               0
1.28289                0.9916567        -14.1408      0.001261136        96.24083                0               0                0               0
1.28947                0.9913967       -14.26145      0.001304079        92.22103                0               0                0               0
1.29605                0.9911349       -14.38304      0.001345767        88.20444                0               0                0               0
1.30263                0.9908716       -14.50563      0.001386086        84.19977                0               0                0               0
1.30921                 0.990607       -14.62929      0.001424938        80.21533                0               0                0               0
1.31579                0.9903413       -14.75411      0.001462248        76.25912                0               0                0               0
1.32237                0.9900745       -14.88016      0.001497959         72.3389                0               0                0               0
1.32895                0.9898061       -15.00754      0.001532041        68.46223                0               0                0               0
1.33553                0.9895357       -15.13631      0.001564488        64.63649                0               0                0               0
1.34211                0.9892627       -15.26657      0.001595324        60.86891                0               0                0               0
1.34868                0.9889861       -15.39839      0.001624607        57.16654                0               0                0               0
1.35526                0.9887052       -15.53184      0.001652426        53.53623                0               0                0               0
1.36184                0.9884186       -15.66698      0.001678911        49.98456                0               0                0               0
1.36842                0.9881251       -15.80386      0.001704231        46.51776                0               0                0               0
1.375                  0.9878235       -15.94253      0.001728599        43.14158                0               0                0               0
1.38158                0.9875122       -16.08303      0.001752271        39.86114                0               0                0               0
1.38816                  0.98719       -16.22537      0.001775551        36.68077                0               0                0               0
1.39474                0.9868553       -16.36957      0.001798792        33.60375                0               0                0               0
1.40132                0.9865068       -16.51563      0.001822392        30.63212                0               0                0               0
1.40789                0.9861432       -16.66355      0.001846796        27.76637                0               0                0               0
1.41447                0.9857632       -16.81329       0.00187249        25.00523                0               0                0               0
1.42105                0.9853659       -16.96485      0.001899999        22.34539                0               0                0               0
1.42763                0.9849503       -17.11818      0.001929877        19.78136                0               0                0               0
1.43421                0.9845157       -17.27325      0.001962699        17.30531                0               0                0               0
1.44079                0.9840615       -17.43002       0.00199905        14.90709                0               0                0               0
1.44737                0.9835874       -17.58845      0.002039512        12.57433                0               0                0               0
1.45395                0.9830934       -17.74849      0.002084652         10.2927                0               0                0               0
1.46053                0.9825794       -17.91012      0.002135003         8.04634                0               0                0               0
1.46711                0.9820457       -18.07329      0.002191056        5.818333                0               0                0               0
1.47368                0.9814928       -18.23799      0.002253248        3.591339                0               0                0               0
1.48026                0.9809212       -18.40421      0.002321946        1.348227                0               0                0               0
1.48684                0.9803318       -18.57192      0.002397448      -0.9273062                0               0                0               0
1.49342                0.9797254       -18.74116      0.002479974       -3.250189                0               0                0               0
1.5                    0.9791027       -18.91194      0.002569668       -5.633528                0               0                0               0
1.50658                0.9784648        -19.0843      0.002666596       -8.088312                0               0                0               0
1.51316                0.9778125        -19.2583      0.002770757       -10.62325                0               0                0               0
1.51974                0.9771467       -19.43399      0.002882081       -13.24477                0               0                0               0
1.52632                0.9764683       -19.61147      0.003000445       -15.95704                0               0                0               0
1.53289                0.9757776       -19.79083      0.003125673       -18.76224                0               0                0               0
1.53947                0.9750753       -19.97218      0.003257547        -21.6607                0               0                0               0
1.54605                0.9743616       -20.15565      0.003395819       -24.65124                0               0                0               0
1.55263                0.9736363       -20.34136      0.003540209       -27.73136                0               0                0               0
1.55921                0.9728993       -20.52946      0.003690421       -30.89759                0               0                0               0
1.56579                  0.97215       -20.72009      0.003846141       -34.14565                0               0                0               0
1.57237                0.9713875        -20.9134       0.00400705       -37.47067                0               0                0               0
1.57895                0.9706108       -21.10953      0.004172823       -40.86745                0               0                0               0
1.58553                0.9698182       -21.30864      0.004343134       -44.33049                0               0                0               0
1.59211                0.9690082       -21.51087      0.004517664       -47.85421                0               0                0               0
1.59868                0.9681787       -21.71634        0.0046961       -51.43298                0               0                0               0
1.60526                0.9673274       -21.92519      0.004878141       -55.06126                0               0                0               0
1.61184                 0.966452       -22.13753      0.005063499        -58.7336                0               0                0               0
1.61842                0.9655497       -22.35345      0.005251906        -62.4447                0               0                0               0
1.625                  0.9646178       -22.57305      0.005443112       -66.18946                0               0                0               0
1.63158                0.9636534        -22.7964      0.005636892       -69.96298                0               0                0               0
1.63816                0.9626536       -23.02354      0.005833048       -73.76058                0               0                0               0
1.64474                0.9616155       -23.25451       0.00603141       -77.57783                0               0                0               0
1.65132                0.9605361       -23.48934      0.006231841       -81.41052                0               0                0               0
1.65789                0.9594129       -23.72804       0.00643424        -85.2547                0               0                0               0
1.66447                0.9582429       -23.97059      0.006638544       -89.10666                0               0                0               0
1.67105                0.9570238       -24.21698      0.006844731       -92.96296                0               0                0               0
1.67763                0.9557534       -24.46719      0.007052825       -96.82041                0               0                0               0
1.68421                0.9544295       -24.72117      0.007262893       -100.6761                0               0                0               0
1.69079                0.9530504       -24.97889      0.007475056       -104.5273                0               0                0               0
1.69737                0.9516146       -25.24031      0.007689482       -108.3718                0               0                0               0
1.70395                0.9501207       -25.50539      0.007906394       -112.2073                0               0                0               0
1.71053                0.9485679       -25.77409      0.008126072       -116.0323                0               0                0               0
1.71711                0.9469553       -26.04639      0.008348847        -119.845                0               0                0               0
1.72368                0.9452825       -26.32227      0.008575111       -123.6445                0               0                0               0
1.73026                 0.943549       -26.60173      0.008805308       -127.4299                0               0                0               0
1.73684                0.9417548       -26.88479      0.009039942       -131.2006                0               0                0               0
1.74342                0.9398999       -27.17148      0.009279567       -134.9566                0               0                0               0
1.75                    0.937984       -27.46186      0.009524789       -138.6981                0               0                0               0
1.75658                0.9360073         -27.756      0.009776262       -142.4255                0               0                0               0
1.76316                0.9339696       -28.05401       0.01003468       -146.1398                0               0                0               0
1.76974                0.9318709       -28.35601        0.0103008       -149.8423                0               0                0               0
1.77632                0.9297106       -28.66215       0.01057536       -153.5346                0               0                0               0
1.78289                0.9274882       -28.97259       0.01085919       -157.2184                0               0                0               0
1.78947                0.9252027       -29.28755       0.01115308        -160.896                0               0                0               0
1.79605                 0.922853       -29.60722       0.01145786       -164.5699                0               0                0               0
1.80263                0.9204372       -29.93185       0.01177437       -168.2426                0               0                0               0
1.80921                0.9179531       -30.26166       0.01210342       -171.9171                0               0                0               0
1.81579                0.9153982       -30.59692       0.01244582       -175.5964                0               0                0               0
1.82237                0.9127691        -30.9379       0.01280236       -179.2834                0               0                0               0
1.82895                0.9100624       -31.28485       0.01317377        177.0185                0               0                0               0
1.83553                0.9072736       -31.63805       0.01356076        173.3064                0               0                0               0
1.84211                0.9043979       -31.99775       0.01396399         169.577                0               0                0               0
1.84868                0.9014301       -32.36422       0.01438405        165.8273                0               0                0               0
1.85526                0.8983643       -32.73768       0.01482148        162.0546                0               0                0               0
1.86184                0.8951942       -33.11835       0.01527674         158.256                0               0                0               0
1.86842                0.8919129       -33.50645       0.01575023        154.4291                0               0                0               0
1.875                  0.8885134       -33.90213       0.01624224        150.5715                0               0                0               0
1.88158                0.8849884       -34.30554       0.01675303        146.6813                0               0                0               0
1.88816                  0.88133        -34.7168       0.01728272        142.7565                0               0                0               0
1.89474                0.8775306         -35.136        0.0178314        138.7957                0               0                0               0
1.90132                0.8735818       -35.56316       0.01839903        134.7976                0               0                0               0
1.90789                0.8694759       -35.99831       0.01898552        130.7613                0               0                0               0
1.91447                0.8652047       -36.44142       0.01959068        126.6858                0               0                0               0
1.92105                0.8607603       -36.89244       0.02021424        122.5708                0               0                0               0
1.92763                0.8561351       -37.35124       0.02085587        118.4159                0               0                0               0
1.93421                0.8513214       -37.81772       0.02151513        114.2211                0               0                0               0
1.94079                0.8463119       -38.29169       0.02219153        109.9864                0               0                0               0
1.94737                0.8410999       -38.77296       0.02288451        105.7123                0               0                0               0
1.95395                0.8356787        -39.2613       0.02359342         101.399                0               0                0               0
1.96053                0.8300423       -39.75644       0.02431757        97.04724                0               0                0               0
1.96711                0.8241849       -40.25811        0.0250562        92.65771                0               0                0               0
1.97368                0.8181013         -40.766       0.02580848        88.23121                0               0                0               0
1.98026                0.8117869       -41.27978       0.02657355        83.76864                0               0                0               0
1.98684                0.8052371       -41.79912       0.02735046        79.27097                0               0                0               0
1.99342                0.7984483       -42.32362       0.02813826        74.73925                0               0                0               0
2                      0.7914169       -42.85293        0.0289359        70.17453                0               0                0               0
2.00658                  0.78414       -43.38665       0.02974233        65.57795                0               0                0               0
2.01316                 0.776615       -43.92438       0.03055645        60.95063                0               0                0               0
2.01974                0.7688396       -44.46571       0.03137712        56.29375                0               0                0               0
2.02632                0.7608119        -45.0102       0.03220316        51.60845                0               0                0               0
2.03289                0.7525302        -45.5574       0.03303338        46.89592                0               0                0               0
2.03947                0.7439933       -46.10688       0.03386654        42.15731                0               0                0               0
2.04605                0.7351998       -46.65814        0.0347014         37.3938                0               0                0               0
2.05263                0.7261488       -47.21068       0.03553669        32.60652                0               0                0               0
2.05921                0.7168396       -47.76399       0.03637111        27.79661                0               0                0               0
2.06579                0.7072713        -48.3175       0.03720338        22.96519                0               0                0               0
2.07237                0.6974435       -48.87062       0.03803217        18.11336                0               0                0               0
2.07895                0.6873556       -49.42269       0.03885618         13.2422                0               0                0               0
2.08553                0.6770074       -49.97302       0.03967407        8.352763                0               0                0               0
2.09211                0.6663987       -50.52085       0.04048452        3.446088                0               0                0               0
2.09868                0.6555295       -51.06531       0.04128622       -1.476813                0               0                0               0
2.10526                0.6443997       -51.60546       0.04207783       -6.414946                0               0                0               0
2.11184                0.6330101       -52.14026       0.04285806       -11.36734                0               0                0               0
2.11842                0.6213612       -52.66853       0.04362561       -16.33305                0               0                0               0
2.125                  0.6094541       -53.18896       0.04437918       -21.31115                0               0                0               0
2.13158                0.5972905       -53.70004       0.04511752       -26.30072                0               0                0               0
2.13816                0.5848724       -54.20012       0.04583938        -31.3009                0               0                0               0
2.14474                0.5722028       -54.68729       0.04654354        -36.3108                0               0                0               0
2.15132                0.5592851       -55.15943       0.04722881       -41.32957                0               0                0               0
2.15789                0.5461241       -55.61413         0.047894       -46.35639                0               0                0               0
2.16447                0.5327251       -56.04865         0.048538       -51.39043                0               0                0               0
2.17105                0.5190951        -56.4599        0.0491597        -56.4309                0               0                0               0
2.17763                0.5052423       -56.84437       0.04975804         -61.477                0               0                0               0
2.18421                0.4911765       -57.19811       0.05033199       -66.52796                0               0                0               0
2.19079                0.4769091       -57.51661       0.05088059       -71.58301                0               0                0               0
2.19737                0.4624537       -57.79477        0.0514029        -76.6414                0               0                0               0
2.20395                0.4478259       -58.02679       0.05189803       -81.70239                0               0                0               0
2.21053                0.4330438       -58.20606       0.05236515       -86.76523                0               0                0               0
2.21711                0.4181283       -58.32508       0.05280348        -91.8292                0               0                0               0
2.22368                0.4031032       -58.37526       0.05321229       -96.89358                0               0                0               0
2.23026                0.3879957       -58.34684       0.05359091       -101.9576                0               0                0               0
2.23684                 0.372837       -58.22861       0.05393874       -107.0207                0               0                0               0
2.24342                0.3576622       -58.00782       0.05425522       -112.0819                0               0                0               0
2.25                   0.3425118       -57.66983       0.05453987       -117.1408                0               0                0               0
2.25658                0.3274315       -57.19795       0.05479226       -122.1964                0               0                0               0
2.26316                0.3124736       -56.57312       0.05501205       -127.2482                0               0                0               0
2.26974                0.2976977       -55.77369       0.05519894       -132.2954                0               0                0               0
2.27632                0.2831721       -54.77524        0.0553527       -137.3372                0               0                0               0
2.28289                0.2689746       -53.55042       0.05547318       -142.3731                0               0                0               0
2.28947                0.2551944       -52.06922       0.05556032       -147.4021                0               0                0               0