! TOUCHSTONE file generated by CST MICROWAVE STUDIO
! Date and time: Tue Mar 11 13:57:13 2025
! Project name: transverse.cst
! Parameters = {Fracture=5; B=10; D=160; F=5; Feed=2.85625; L=100; M=30; R=0.384908; S=1; Theta=180; length=57.125; wave=114.25}
! Header version: 2024
! Port assignment regex: !\s*Touchstone port\s*([0-9]+)\s*=\s*(CST MWS port|CST DES external port|CST DES block port)\s*(.+)\s* \(\"(.*)\"\)(\s*mode\s*([0-9]+))?.*
! Touchstone port assignment:
! Touchstone port 1 = CST MWS port 1 ("")
! Touchstone port 2 = CST MWS port 2 ("")
# GHz S MA R 50
1                      0.9977157       -9.761529     0.0003595145       -160.6442                0               0                0               0
1.0066                 0.9976177       -9.849806     0.0003682271       -164.9049                0               0                0               0
1.0132                 0.9975147       -9.938441     0.0003760878       -169.1258                0               0                0               0
1.0198                 0.9974075       -10.02742     0.0003830613       -173.2964                0               0                0               0
1.0264                 0.9972967       -10.11672     0.0003891204       -177.4062                0               0                0               0
1.033                  0.9971828       -10.20635     0.0003942466        178.5561                0               0                0               0
1.0396                 0.9970668        -10.2963     0.0003984318        174.6021                0               0                0               0
1.0462                 0.9969494       -10.38661     0.0004016791        170.7441                0               0                0               0
1.05281                0.9968313       -10.47727      0.000404005        166.9954                0               0                0               0
1.05941                0.9967133       -10.56833     0.0004054406        163.3699                0               0                0               0
1.06601                0.9965959       -10.65982     0.0004060341        159.8826                0               0                0               0
1.07261                0.9964798       -10.75179     0.0004058525        156.5493                0               0                0               0
1.07921                0.9963654       -10.84427     0.0004049844        153.3866                0               0                0               0
1.08581                0.9962527       -10.93733     0.0004035421        150.4113                0               0                0               0
1.09241                0.9961424       -11.03103     0.0004016643        147.6405                0               0                0               0
1.09901                0.9960342       -11.12541     0.0003995182        145.0905                0               0                0               0
1.10561                0.9959281       -11.22054     0.0003973015        142.7758                0               0                0               0
1.11221                0.9958238       -11.31649     0.0003952431        140.7078                0               0                0               0
1.11881                0.9957211        -11.4133     0.0003936023        138.8932                0               0                0               0
1.12541                0.9956192       -11.51104     0.0003926659        137.3318                0               0                0               0
1.13201                0.9955175       -11.60975     0.0003927422        136.0146                0               0                0               0
1.13861                0.9954153       -11.70947     0.0003941522         134.922                0               0                0               0
1.14521                0.9953119       -11.81025     0.0003972167        134.0224                0               0                0               0
1.15182                0.9952063        -11.9121     0.0004022405        133.2732                0               0                0               0
1.15842                0.9950975       -12.01506     0.0004094967        132.6215                0               0                0               0
1.16502                0.9949844       -12.11914     0.0004192101        132.0081                0               0                0               0
1.17162                0.9948663       -12.22433     0.0004315454        131.3718                0               0                0               0
1.17822                0.9947422       -12.33065     0.0004466003        130.6541                0               0                0               0
1.18482                0.9946112       -12.43806     0.0004644044        129.8039                0               0                0               0
1.19142                0.9944723       -12.54657     0.0004849237          128.78                0               0                0               0
1.19802                0.9943251       -12.65614     0.0005080702        127.5533                0               0                0               0
1.20462                 0.994169       -12.76674     0.0005337123         126.106                0               0                0               0
1.21122                0.9940035       -12.87835     0.0005616866        124.4308                0               0                0               0
1.21782                0.9938282       -12.99091      0.000591808         122.529                0               0                0               0
1.22442                0.9936432        -13.1044     0.0006238792        120.4083                0               0                0               0
1.23102                0.9934483       -13.21879     0.0006576961        118.0811                0               0                0               0
1.23762                0.9932437       -13.33402     0.0006930543        115.5623                0               0                0               0
1.24422                0.9930299       -13.45008     0.0007297513        112.8687                0               0                0               0
1.25083                0.9928072       -13.56694     0.0007675896        110.0175                0               0                0               0
1.25743                0.9925762       -13.68458     0.0008063773        107.0259                0               0                0               0
1.26403                0.9923376       -13.80298     0.0008459303        103.9103                0               0                0               0
1.27063                 0.992092       -13.92214     0.0008860715        100.6866                0               0                0               0
1.27723                0.9918405       -14.04207     0.0009266326        97.36966                0               0                0               0
1.28383                0.9915838       -14.16279     0.0009674534        93.97323                0               0                0               0
1.29043                0.9913226       -14.28431      0.001008383        90.51022                0               0                0               0
1.29703                 0.991058       -14.40668       0.00104928        86.99256                0               0                0               0
1.30363                0.9907904       -14.52994      0.001090012        83.43133                0               0                0               0
1.31023                0.9905208       -14.65415      0.001130461        79.83682                0               0                0               0
1.31683                0.9902497       -14.77936      0.001170515        76.21858                0               0                0               0
1.32343                0.9899776       -14.90566       0.00121008        72.58554                0               0                0               0
1.33003                0.9897046       -15.03311      0.001249072        68.94606                0               0                0               0
1.33663                0.9894309        -15.1618      0.001287424        65.30794                0               0                0               0
1.34323                0.9891565       -15.29182      0.001325083        61.67855                0               0                0               0
1.34984                0.9888812       -15.42325      0.001362014        58.06479                0               0                0               0
1.35644                0.9886046       -15.55619      0.001398201        54.47316                0               0                0               0
1.36304                0.9883261       -15.69071      0.001433648        50.90973                0               0                0               0
1.36964                0.9880447        -15.8269      0.001468378        47.38022                0               0                0               0
1.37624                0.9877599       -15.96484      0.001502439        43.88988                0               0                0               0
1.38284                0.9874702       -16.10459      0.001535902        40.44355                0               0                0               0
1.38944                0.9871748       -16.24624      0.001568862         37.0456                0               0                0               0
1.39604                0.9868723       -16.38982      0.001601441        33.69984                0               0                0               0
1.40264                0.9865612       -16.53539      0.001633785        30.40951                0               0                0               0
1.40924                0.9862402       -16.68299      0.001666068        27.17721                0               0                0               0
1.41584                0.9859081       -16.83264       0.00169849        24.00477                0               0                0               0
1.42244                0.9855632       -16.98436      0.001731275        20.89323                0               0                0               0
1.42904                0.9852043       -17.13817      0.001764672        17.84271                0               0                0               0
1.43564                0.9848302       -17.29406      0.001798952        14.85238                0               0                0               0
1.44224                0.9844397       -17.45203      0.001834406         11.9204                0               0                0               0
1.44884                0.9840317       -17.61207      0.001871339        9.043824                0               0                0               0
1.45545                0.9836054       -17.77416       0.00191007        6.218671                0               0                0               0
1.46205                  0.98316       -17.93828      0.001950923        3.439893                0               0                0               0
1.46865                0.9826947       -18.10442      0.001994224       0.7014625                0               0                0               0
1.47525                0.9822095       -18.27254      0.002040295       -2.003535                0               0                0               0
1.48185                0.9817038       -18.44264      0.002089449       -4.682758                0               0                0               0
1.48845                0.9811777        -18.6147       0.00214198       -7.344418                0               0                0               0
1.49505                0.9806311       -18.78872      0.002198163       -9.997087                0               0                0               0
1.50165                0.9800644       -18.96469      0.002258245       -12.64946                0               0                0               0
1.50825                0.9794775       -19.14262      0.002322442       -15.31012                0               0                0               0
1.51485                 0.978871       -19.32255      0.002390935       -17.98733                0               0                0               0
1.52145                0.9782453       -19.50449      0.002463869       -20.68882                0               0                0               0
1.52805                0.9776007       -19.68849       0.00254135       -23.42161                0               0                0               0
1.53465                0.9769375       -19.87462      0.002623444       -26.19185                0               0                0               0
1.54125                0.9762562       -20.06293      0.002710183       -29.00478                0               0                0               0
1.54785                0.9755569       -20.25352      0.002801555       -31.86461                0               0                0               0
1.55446                0.9748397       -20.44647      0.002897521       -34.77456                0               0                0               0
1.56106                0.9741046        -20.6419      0.002998008       -37.73683                0               0                0               0
1.56766                0.9733513       -20.83991      0.003102913       -40.75269                0               0                0               0
1.57426                0.9725793       -21.04063       0.00321211       -43.82253                0               0                0               0
1.58086                0.9717878       -21.24418      0.003325451       -46.94593                0               0                0               0
1.58746                0.9709761       -21.45071      0.003442773       -50.12179                0               0                0               0
1.59406                0.9701428       -21.66034      0.003563898        -53.3484                0               0                0               0
1.60066                0.9692863        -21.8732      0.003688638       -56.62353                0               0                0               0
1.60726                 0.968405       -22.08944        0.0038168       -59.94454                0               0                0               0
1.61386                0.9674969       -22.30918       0.00394819       -63.30844                0               0                0               0
1.62046                0.9665596       -22.53254      0.004082614       -66.71202                0               0                0               0
1.62706                0.9655906       -22.75963      0.004219881       -70.15185                0               0                0               0
1.63366                0.9645874       -22.99055      0.004359814       -73.62438                0               0                0               0
1.64026                 0.963547        -23.2254       0.00450224       -77.12599                0               0                0               0
1.64686                0.9624665       -23.46425      0.004647008       -80.65305                0               0                0               0
1.65347                0.9613428       -23.70715      0.004793981       -84.20191                0               0                0               0
1.66007                0.9601728       -23.95417      0.004943043         -87.769                0               0                0               0
1.66667                0.9589534       -24.20533      0.005094107       -91.35082                0               0                0               0
1.67327                0.9576815       -24.46064      0.005247109       -94.94398                0               0                0               0
1.67987                0.9563541       -24.72012      0.005402016       -98.54521                0               0                0               0
1.68647                0.9549682       -24.98375      0.005558832       -102.1514                0               0                0               0
1.69307                0.9535212       -25.25152      0.005717593       -105.7597                0               0                0               0
1.69967                0.9520102       -25.52339      0.005878377       -109.3673                0               0                0               0
1.70627                0.9504332       -25.79933      0.006041302       -112.9717                0               0                0               0
1.71287                0.9487878        -26.0793      0.006206532       -116.5707                0               0                0               0
1.71947                0.9470721       -26.36324      0.006374272       -120.1623                0               0                0               0
1.72607                0.9452843       -26.65112      0.006544781       -123.7448                0               0                0               0
1.73267                 0.943423        -26.9429      0.006718358       -127.3167                0               0                0               0
1.73927                0.9414868       -27.23853      0.006895357        -130.877                0               0                0               0
1.74587                0.9394749       -27.53798       0.00707618       -134.4249                0               0                0               0
1.75248                 0.937386       -27.84125      0.007261274         -137.96                0               0                0               0
1.75908                0.9352197       -28.14832      0.007451137       -141.4823                0               0                0               0
1.76568                0.9329752        -28.4592      0.007646309       -144.9921                0               0                0               0
1.77228                0.9306519       -28.77393      0.007847371       -148.4902                0               0                0               0
1.77888                0.9282493       -29.09254      0.008054946       -151.9776                0               0                0               0
1.78548                0.9257667       -29.41509      0.008269686       -155.4558                0               0                0               0
1.79208                0.9232036       -29.74168      0.008492275       -158.9266                0               0                0               0
1.79868                 0.920559        -30.0724      0.008723414       -162.3922                0               0                0               0
1.80528                0.9178318       -30.40738      0.008963826        -165.855                0               0                0               0
1.81188                0.9150209       -30.74676      0.009214237       -169.3179                0               0                0               0
1.81848                0.9121245       -31.09069      0.009475375       -172.7836                0               0                0               0
1.82508                0.9091407       -31.43935      0.009747961       -176.2554                0               0                0               0
1.83168                0.9060674       -31.79292        0.0100327       -179.7366                0               0                0               0
1.83828                0.9029019       -32.15158       0.01033028        176.7695                0               0                0               0
1.84488                0.8996407       -32.51554       0.01064134        173.2596                0               0                0               0
1.85149                0.8962805       -32.88499       0.01096651        169.7302                0               0                0               0
1.85809                0.8928171       -33.26015       0.01130634        166.1781                0               0                0               0
1.86469                 0.889246        -33.6412       0.01166135        162.6001                0               0                0               0
1.87129                0.8855624       -34.02832       0.01203201        158.9934                0               0                0               0
1.87789                0.8817604        -34.4217       0.01241872        155.3552                0               0                0               0
1.88449                0.8778347       -34.82147       0.01282181        151.6829                0               0                0               0
1.89109                0.8737788       -35.22777       0.01324155        147.9744                0               0                0               0
1.89769                0.8695864       -35.64072       0.01367814        144.2276                0               0                0               0
1.90429                0.8652506       -36.06039        0.0141317         140.441                0               0                0               0
1.91089                0.8607645       -36.48684        0.0146023        136.6131                0               0                0               0
1.91749                 0.856121       -36.92007       0.01508992         132.743                0               0                0               0
1.92409                0.8513129       -37.36006       0.01559449        128.8297                0               0                0               0
1.93069                0.8463329       -37.80678       0.01611583        124.8728                0               0                0               0
1.93729                 0.841174        -38.2601       0.01665375        120.8721                0               0                0               0
1.94389                0.8358293        -38.7199       0.01720795        116.8275                0               0                0               0
1.9505                 0.8302917         -39.186       0.01777808        112.7391                0               0                0               0
1.9571                 0.8245548       -39.65818       0.01836373        108.6074                0               0                0               0
1.9637                 0.8186124        -40.1362       0.01896444        104.4329                0               0                0               0
1.9703                 0.8124587       -40.61974       0.01957968        100.2163                0               0                0               0
1.9769                 0.8060883       -41.10849       0.02020887        95.95839                0               0                0               0
1.9835                 0.7994961       -41.60207       0.02085137        91.66019                0               0                0               0
1.9901                 0.7926779       -42.10009       0.02150652         87.3227                0               0                0               0
1.9967                 0.7856297       -42.60208       0.02217358        82.94702                0               0                0               0
2.0033                 0.7783482        -43.1076       0.02285179        78.53432                0               0                0               0
2.0099                 0.7708309       -43.61615       0.02354034        74.08582                0               0                0               0
2.0165                 0.7630753       -44.12719       0.02423838        69.60276                0               0                0               0
2.0231                 0.7550799       -44.64018       0.02494502        65.08642                0               0                0               0
2.0297                 0.7468437       -45.15453       0.02565936        60.53807                0               0                0               0
2.0363                 0.7383663       -45.66965       0.02638045        55.95902                0               0                0               0
2.0429                 0.7296478       -46.18491       0.02710731        51.35054                0               0                0               0
2.0495                 0.7206885       -46.69964       0.02783893        46.71392                0               0                0               0
2.05611                0.7114896       -47.21319       0.02857431        42.05042                0               0                0               0
2.06271                0.7020527       -47.72483       0.02931239        37.36131                0               0                0               0
2.06931                0.6923794       -48.23385       0.03005211        32.64781                0               0                0               0
2.07591                0.6824719       -48.73949        0.0307924        27.91113                0               0                0               0
2.08251                 0.672333       -49.24092       0.03153216        23.15246                0               0                0               0
2.08911                0.6619654       -49.73733       0.03227029        18.37296                0               0                0               0
2.09571                0.6513721       -50.22782       0.03300568        13.57376                0               0                0               0
2.10231                0.6405566       -50.71144       0.03373722        8.755983                0               0                0               0
2.10891                0.6295226        -51.1872       0.03446379        3.920696                0               0                0               0
2.11551                0.6182738       -51.65399       0.03518427      -0.9310421                0               0                0               0
2.12211                0.6068142       -52.11067       0.03589755       -5.798205                0               0                0               0
2.12871                0.5951482       -52.55596       0.03660251       -10.67979                0               0                0               0
2.13531                0.5832802       -52.98846       0.03729805       -15.57482                0               0                0               0
2.14191                0.5712151       -53.40665       0.03798308       -20.48236                0               0                0               0
2.14851                0.5589579       -53.80885       0.03865651       -25.40146                0               0                0               0
2.15512                0.5465142       -54.19319       0.03931728       -30.33122                0               0                0               0
2.16172                0.5338898       -54.55758       0.03996433       -35.27077                0               0                0               0
2.16832                0.5210912       -54.89971       0.04059665       -40.21924                0               0                0               0
2.17492                0.5081255       -55.21699       0.04121321       -45.17579                0               0                0               0
2.18152                0.4950003       -55.50649       0.04181305       -50.13959                0               0                0               0
2.18812                0.4817244       -55.76493        0.0423952       -55.10985                0               0                0               0
2.19472                0.4683072        -55.9886       0.04295873       -60.08576                0               0                0               0
2.20132                0.4547596       -56.17335       0.04350276       -65.06655                0               0                0               0
2.20792                0.4410935        -56.3144       0.04402642       -70.05147                0               0                0               0
2.21452                0.4273226       -56.40642       0.04452889       -75.03976                0               0                0               0
2.22112                0.4134623        -56.4433        0.0450094       -80.03069                0               0                0               0
2.22772                  0.39953       -56.41811       0.04546718       -85.02352                0               0                0               0
2.23432                0.3855453       -56.32299       0.04590154       -90.01755                0               0                0               0
2.24092                0.3715309       -56.14894       0.04631181       -95.01206                0               0                0               0
2.24752                0.3575121       -55.88575        0.0466974       -100.0064                0               0                0               0
2.25413                0.3435183       -55.52176       0.04705774       -104.9997                0               0                0               0
2.26073                0.3295827       -55.04369       0.04739231       -109.9915                0               0                0               0
2.26733                0.3157435       -54.43645       0.04770064        -114.981                0               0                0               0
2.27393                0.3020442        -53.6829       0.04798232       -119.9675                0               0                0               0
2.28053                0.2885352       -52.76375         0.048237       -124.9504                0               0                0               0
2.28713                0.2752739       -51.65734       0.04846438       -129.9289                0               0                0               0
2.29373                0.2623269        -50.3397        0.0486642       -134.9024                0               0                0               0