! TOUCHSTONE file generated by CST MICROWAVE STUDIO
! Date and time: Tue Mar 11 13:56:31 2025
! Project name: transverse.cst
! Parameters = {Fracture=5; B=10; D=160; F=5; Feed=2.85625; L=100; M=10; R=0.384908; S=2; Theta=90; length=57.125; wave=114.25}
! Header version: 2024
! Port assignment regex: !\s*Touchstone port\s*([0-9]+)\s*=\s*(CST MWS port|CST DES external port|CST DES block port)\s*(.+)\s* \(\"(.*)\"\)(\s*mode\s*([0-9]+))?.*
! Touchstone port assignment:
! Touchstone port 1 = CST MWS port 1 ("")
! Touchstone port 2 = CST MWS port 2 ("")
# GHz S MA R 50
1                      0.9978466       -9.751092     0.0002730998       -122.9774                0               0                0               0
1.00658                0.9977664       -9.839426     0.0002938724       -127.1988                0               0                0               0
1.01316                0.9976801       -9.928222     0.0003140687       -131.5507                0               0                0               0
1.01974                0.9975882       -10.01744     0.0003335599       -135.9967                0               0                0               0
1.02632                0.9974912       -10.10707     0.0003522246       -140.5081                0               0                0               0
1.03289                0.9973895       -10.19707     0.0003699478       -145.0617                0               0                0               0
1.03947                0.9972839       -10.28745     0.0003866208       -149.6379                0               0                0               0
1.04605                 0.997175       -10.37818     0.0004021415       -154.2201                0               0                0               0
1.05263                0.9970637       -10.46927     0.0004164146       -158.7932                0               0                0               0
1.05921                0.9969506       -10.56072     0.0004293519       -163.3435                0               0                0               0
1.06579                0.9968367       -10.65257     0.0004408739       -167.8578                0               0                0               0
1.07237                0.9967226       -10.74482     0.0004509104       -172.3234                0               0                0               0
1.07895                0.9966092       -10.83753     0.0004594016        -176.727                0               0                0               0
1.08553                0.9964968       -10.93072     0.0004662999        178.9446                0               0                0               0
1.09211                0.9963862       -11.02444     0.0004715714         174.706                0               0                0               0
1.09868                0.9962778       -11.11876     0.0004751981        170.5725                0               0                0               0
1.10526                0.9961718       -11.21372     0.0004771801        166.5613                0               0                0               0
1.11184                0.9960684        -11.3094      0.000477539        162.6911                0               0                0               0
1.11842                0.9959675       -11.40586     0.0004763207        158.9829                0               0                0               0
1.125                  0.9958691       -11.50316        0.0004736        155.4605                0               0                0               0
1.13158                0.9957728       -11.60136     0.0004694857        152.1501                0               0                0               0
1.13816                0.9956781       -11.70054     0.0004641261        149.0812                0               0                0               0
1.14474                0.9955845       -11.80074     0.0004577163         146.286                0               0                0               0
1.15132                0.9954912       -11.90204     0.0004505059        143.7991                0               0                0               0
1.15789                0.9953973       -12.00446      0.000442807        141.6566                0               0                0               0
1.16447                 0.995302       -12.10806     0.0004350028        139.8935                0               0                0               0
1.17105                0.9952041       -12.21287     0.0004275535        138.5407                0               0                0               0
1.17763                0.9951026       -12.31891     0.0004209983        137.6195                0               0                0               0
1.18421                0.9949963        -12.4262     0.0004159497        137.1349                0               0                0               0
1.19079                0.9948843       -12.53474     0.0004130753         137.068                0               0                0               0
1.19737                0.9947653       -12.64455     0.0004130652        137.3691                0               0                0               0
1.20395                0.9946383       -12.75559     0.0004165842        137.9548                0               0                0               0
1.21053                0.9945025       -12.86787     0.0004242141        138.7113                0               0                0               0
1.21711                0.9943569       -12.98134     0.0004363992        139.5054                0               0                0               0
1.22368                0.9942009       -13.09599     0.0004534083        140.2017                0               0                0               0
1.23026                0.9940338       -13.21177     0.0004753234        140.6798                0               0                0               0
1.23684                0.9938551       -13.32865     0.0005020557        140.8475                0               0                0               0
1.24342                0.9936646       -13.44659     0.0005333823        140.6463                0               0                0               0
1.25                   0.9934622       -13.56553     0.0005689884        140.0497                0               0                0               0
1.25658                0.9932478       -13.68545     0.0006085085        139.0572                0               0                0               0
1.26316                0.9930218       -13.80631     0.0006515574        137.6868                0               0                0               0
1.26974                0.9927842       -13.92807     0.0006977522        135.9673                0               0                0               0
1.27632                0.9925358        -14.0507     0.0007467246        133.9334                0               0                0               0
1.28289                0.9922771       -14.17419     0.0007981279        131.6212                0               0                0               0
1.28947                0.9920087       -14.29852     0.0008516388        129.0661                0               0                0               0
1.29605                0.9917315        -14.4237     0.0009069581         126.301                0               0                0               0
1.30263                0.9914463       -14.54972      0.000963809        123.3564                0               0                0               0
1.30921                0.9911537       -14.67661      0.001021936        120.2593                0               0                0               0
1.31579                0.9908548        -14.8044      0.001081102         117.034                0               0                0               0
1.32237                0.9905501       -14.93312      0.001141091        113.7018                0               0                0               0
1.32895                0.9902406       -15.06282      0.001201702        110.2818                0               0                0               0
1.33553                0.9899268       -15.19356      0.001262752        106.7908                0               0                0               0
1.34211                0.9896091       -15.32541      0.001324076        103.2435                0               0                0               0
1.34868                0.9892879       -15.45844      0.001385525         99.6533                0               0                0               0
1.35526                0.9889633       -15.59274      0.001446969        96.03189                0               0                0               0
1.36184                0.9886355       -15.72838      0.001508294        92.38985                0               0                0               0
1.36842                0.9883042       -15.86545       0.00156941        88.73666                0               0                0               0
1.375                   0.987969       -16.00404      0.001630242        85.08083                0               0                0               0
1.38158                0.9876294       -16.14424      0.001690743        81.43007                0               0                0               0
1.38816                0.9872845       -16.28613      0.001750884         77.7913                0               0                0               0
1.39474                0.9869335        -16.4298      0.001810663        74.17078                0               0                0               0
1.40132                0.9865753       -16.57531      0.001870104         70.5741                0               0                0               0
1.40789                0.9862085       -16.72275      0.001929258        67.00624                0               0                0               0
1.41447                 0.985832       -16.87215      0.001988203        63.47156                0               0                0               0
1.42105                0.9854441       -17.02359      0.002047047        59.97383                0               0                0               0
1.42763                0.9850433       -17.17709      0.002105928        56.51618                0               0                0               0
1.43421                0.9846281       -17.33268      0.002165014        53.10113                0               0                0               0
1.44079                 0.984197       -17.49038      0.002224504        49.73052                0               0                0               0
1.44737                0.9837483        -17.6502      0.002284624        46.40549                0               0                0               0
1.45395                0.9832807       -17.81214      0.002345631         43.1265                0               0                0               0
1.46053                0.9827927       -17.97619      0.002407808        39.89322                0               0                0               0
1.46711                0.9822831       -18.14231      0.002471462        36.70459                0               0                0               0
1.47368                0.9817508        -18.3105      0.002536922        33.55876                0               0                0               0
1.48026                0.9811948        -18.4807      0.002604536        30.45315                0               0                0               0
1.48684                0.9806143       -18.65289      0.002674664        27.38442                0               0                0               0
1.49342                0.9800089       -18.82703      0.002747676        24.34853                0               0                0               0
1.5                     0.979378       -19.00308      0.002823945        21.34084                0               0                0               0
1.50658                0.9787216       -19.18101      0.002903844        18.35615                0               0                0               0
1.51316                0.9780395       -19.36077      0.002987737        15.38884                0               0                0               0
1.51974                0.9773321       -19.54236      0.003075975        12.43295                0               0                0               0
1.52632                0.9765996       -19.72574      0.003168892        9.482372                0               0                0               0
1.53289                0.9758425       -19.91093      0.003266797        6.530932                0               0                0               0
1.53947                0.9750614       -20.09791      0.003369972         3.57256                0               0                0               0
1.54605                 0.974257       -20.28671      0.003478667       0.6014072                0               0                0               0
1.55263                  0.97343       -20.47737        0.0035931       -2.388022                0               0                0               0
1.55921                0.9725809       -20.66992       0.00371345       -5.400777                0               0                0               0
1.56579                0.9717107       -20.86443      0.003839858       -8.441375                0               0                0               0
1.57237                0.9708198       -21.06098       0.00397243       -11.51374                0               0                0               0
1.57895                0.9699086       -21.25966      0.004111233       -14.62115                0               0                0               0
1.58553                0.9689775       -21.46057      0.004256297       -17.76625                0               0                0               0
1.59211                0.9680267       -21.66382      0.004407618       -20.95103                0               0                0               0
1.59868                 0.967056       -21.86956      0.004565163       -24.17685                0               0                0               0
1.60526                0.9660652        -22.0779      0.004728867        -27.4445                0               0                0               0
1.61184                0.9650535         -22.289      0.004898638       -30.75417                0               0                0               0
1.61842                0.9640201       -22.50301      0.005074365       -34.10561                0               0                0               0
1.625                  0.9629639       -22.72007      0.005255914       -37.49809                0               0                0               0
1.63158                0.9618833       -22.94034      0.005443136       -40.93051                0               0                0               0
1.63816                0.9607766       -23.16396       0.00563587       -44.40143                0               0                0               0
1.64474                0.9596415       -23.39109      0.005833947       -47.90915                0               0                0               0
1.65132                 0.958476       -23.62184      0.006037193       -51.45174                0               0                0               0
1.65789                0.9572772       -23.85636      0.006245428       -55.02711                0               0                0               0
1.66447                0.9560424       -24.09476      0.006458479       -58.63303                0               0                0               0
1.67105                0.9547688       -24.33714      0.006676174       -62.26718                0               0                0               0
1.67763                0.9534529       -24.58358      0.006898348       -65.92722                0               0                0               0
1.68421                0.9520917       -24.83416      0.007124852       -69.61074                0               0                0               0
1.69079                0.9506821       -25.08893      0.007355547       -73.31537                0               0                0               0
1.69737                0.9492204       -25.34793       0.00759031       -77.03877                0               0                0               0
1.70395                0.9477035       -25.61119      0.007829041       -80.77864                0               0                0               0
1.71053                0.9461284       -25.87871      0.008071661       -84.53277                0               0                0               0
1.71711                0.9444915       -26.15049      0.008318114       -88.29903                0               0                0               0
1.72368                0.9427904        -26.4265      0.008568373       -92.07539                0               0                0               0
1.73026                0.9410221       -26.70673      0.008822441       -95.85995                0               0                0               0
1.73684                0.9391841       -26.99113       0.00908035       -99.65092                0               0                0               0
1.74342                0.9372742       -27.27965      0.009342168       -103.4467                0               0                0               0
1.75                     0.93529       -27.57226      0.009607994       -107.2457                0               0                0               0
1.75658                0.9332301        -27.8689      0.009877964       -111.0467                0               0                0               0
1.76316                0.9310928       -28.16954       0.01015225       -114.8485                0               0                0               0
1.76974                0.9288767       -28.47412       0.01043107       -118.6501                0               0                0               0
1.77632                0.9265807       -28.78263       0.01071466       -122.4506                0               0                0               0
1.78289                 0.924204       -29.09504        0.0110033       -126.2495                0               0                0               0
1.78947                0.9217457       -29.41135       0.01129732       -130.0463                0               0                0               0
1.79605                0.9192052       -29.73158       0.01159707       -133.8407                0               0                0               0
1.80263                 0.916582       -30.05574       0.01190294       -137.6327                0               0                0               0
1.80921                0.9138754       -30.38391       0.01221533       -141.4223                0               0                0               0
1.81579                 0.911085       -30.71614       0.01253471       -145.2098                0               0                0               0
1.82237                0.9082099       -31.05254       0.01286153       -148.9958                0               0                0               0
1.82895                0.9052494       -31.39321       0.01319629       -152.7808                0               0                0               0
1.83553                0.9022024       -31.73829        0.0135395       -156.5657                0               0                0               0
1.84211                0.8990676       -32.08795       0.01389167       -160.3514                0               0                0               0
1.84868                0.8958431       -32.44237       0.01425333       -164.1391                0               0                0               0
1.85526                0.8925271       -32.80173       0.01462501       -167.9298                0               0                0               0
1.86184                0.8891171       -33.16624       0.01500724       -171.7251                0               0                0               0
1.86842                0.8856101       -33.53613       0.01540053       -175.5262                0               0                0               0
1.875                  0.8820027       -33.91162       0.01580538       -179.3346                0               0                0               0
1.88158                0.8782909       -34.29293       0.01622228         176.848                0               0                0               0
1.88816                0.8744705        -34.6803       0.01665167        173.0201                0               0                0               0
1.89474                0.8705362       -35.07395       0.01709399        169.1802                0               0                0               0
1.90132                0.8664827        -35.4741       0.01754961        165.3267                0               0                0               0
1.90789                0.8623039       -35.88094       0.01801889        161.4579                0               0                0               0
1.91447                0.8579936       -36.29465       0.01850213        157.5725                0               0                0               0
1.92105                0.8535448       -36.71538       0.01899956        153.6689                0               0                0               0
1.92763                0.8489502       -37.14327       0.01951139        149.7458                0               0                0               0
1.93421                0.8442024       -37.57839       0.02003775         145.802                0               0                0               0
1.94079                0.8392935       -38.02082       0.02057872        141.8361                0               0                0               0
1.94737                0.8342157       -38.47055       0.02113431        137.8473                0               0                0               0
1.95395                 0.828961       -38.92758       0.02170448        133.8344                0               0                0               0
1.96053                0.8235213       -39.39181       0.02228911        129.7968                0               0                0               0
1.96711                0.8178886       -39.86314       0.02288802        125.7336                0               0                0               0
1.97368                 0.812055        -40.3414       0.02350097        121.6443                0               0                0               0
1.98026                0.8060132       -40.82636       0.02412765        117.5284                0               0                0               0
1.98684                0.7997557       -41.31776       0.02476768        113.3855                0               0                0               0
1.99342                0.7932758       -41.81528       0.02542062        109.2155                0               0                0               0
2                       0.786567       -42.31853       0.02608598        105.0182                0               0                0               0
2.00658                0.7796235       -42.82711       0.02676319        100.7937                0               0                0               0
2.01316                0.7724401       -43.34055       0.02745164        96.54188                0               0                0               0
2.01974                0.7650121       -43.85832       0.02815064        92.26309                0               0                0               0
2.02632                0.7573357       -44.37987       0.02885947        87.95755                0               0                0               0
2.03289                0.7494076       -44.90459       0.02957734        83.62561                0               0                0               0
2.03947                0.7412254       -45.43184       0.03030342        79.26768                0               0                0               0
2.04605                0.7327873       -45.96092       0.03103684        74.88425                0               0                0               0
2.05263                0.7240925       -46.49112       0.03177668        70.47586                0               0                0               0
2.05921                0.7151408       -47.02167       0.03252198         66.0431                0               0                0               0
2.06579                0.7059326       -47.55177       0.03327174         61.5866                0               0                0               0
2.07237                0.6964693       -48.08059       0.03402492        57.10705                0               0                0               0
2.07895                0.6867528       -48.60726       0.03478048        52.60513                0               0                0               0
2.08553                0.6767858       -49.13088       0.03553732        48.08159                0               0                0               0
2.09211                0.6665714        -49.6505       0.03629432        43.53719                0               0                0               0
2.09868                0.6561135       -50.16514       0.03705036         38.9727                0               0                0               0
2.10526                0.6454165       -50.67379       0.03780428         34.3889                0               0                0               0
2.11184                 0.634485       -51.17537       0.03855492        29.78661                0               0                0               0
2.11842                0.6233243       -51.66877        0.0393011        25.16663                0               0                0               0
2.125                    0.61194       -52.15279       0.04004164        20.52976                0               0                0               0
2.13158                0.6003379        -52.6262       0.04077535        15.87684                0               0                0               0
2.13816                0.5885242       -53.08765       0.04150104        11.20868                0               0                0               0
2.14474                0.5765056       -53.53573       0.04221752        6.526086                0               0                0               0
2.15132                0.5642884       -53.96889       0.04292362        1.829884                0               0                0               0
2.15789                0.5518798       -54.38548       0.04361815        -2.87912                0               0                0               0
2.16447                0.5392868       -54.78367       0.04429996        -7.60012                0               0                0               0
2.17105                0.5265168       -55.16146        0.0449679       -12.33231                0               0                0               0
2.17763                0.5135773       -55.51666       0.04562084        -17.0749                0               0                0               0
2.18421                0.5004764       -55.84681       0.04625767       -21.82711                0               0                0               0
2.19079                0.4872222       -56.14915       0.04687731       -26.58814                0               0                0               0
2.19737                0.4738235       -56.42063       0.04747871       -31.35723                0               0                0               0
2.20395                0.4602895       -56.65775       0.04806082        -36.1336                0               0                0               0
2.21053                0.4466302       -56.85659       0.04862267        -40.9165                0               0                0               0
2.21711                0.4328563       -57.01266       0.04916328       -45.70517                0               0                0               0
2.22368                0.4189798       -57.12083       0.04968173       -50.49886                0               0                0               0
2.23026                0.4050135       -57.17526       0.05017714       -55.29684                0               0                0               0
2.23684                0.3909723       -57.16921       0.05064868       -60.09836                0               0                0               0
2.24342                0.3768726       -57.09494       0.05109554        -64.9027                0               0                0               0
2.25                   0.3627331        -56.9435       0.05151698       -69.70912                0               0                0               0
2.25658                0.3485753       -56.70453       0.05191229       -74.51691                0               0                0               0
2.26316                 0.334424       -56.36607       0.05228083       -79.32534                0               0                0               0
2.26974                0.3203077       -55.91422         0.052622       -84.13371                0               0                0               0
2.27632                  0.30626       -55.33285       0.05293526       -88.94129                0               0                0               0
2.28289                0.2923199        -54.6033       0.05322014       -93.74739                0               0                0               0
2.28947                0.2785332       -53.70398       0.05347619       -98.55129                0               0                0               0