! TOUCHSTONE file generated by CST MICROWAVE STUDIO
! Date and time: Tue Mar 11 13:58:18 2025
! Project name: transverse.cst
! Parameters = {Fracture=5; B=12.5; D=160; F=15; Feed=2.85625; L=100; M=10; R=0.384908; S=1; Theta=270; length=57.125; wave=114.25}
! Header version: 2024
! Port assignment regex: !\s*Touchstone port\s*([0-9]+)\s*=\s*(CST MWS port|CST DES external port|CST DES block port)\s*(.+)\s* \(\"(.*)\"\)(\s*mode\s*([0-9]+))?.*
! Touchstone port assignment:
! Touchstone port 1 = CST MWS port 1 ("")
! Touchstone port 2 = CST MWS port 2 ("")
# GHz S MA R 50
1                      0.9978421       -9.759727     0.0003460691        -146.285                0               0                0               0
1.0066                 0.9977489       -9.848179     0.0003532048       -150.8119                0               0                0               0
1.0132                 0.9976507       -9.936976     0.0003590789       -155.2583                0               0                0               0
1.0198                 0.9975484        -10.0261     0.0003636496         -159.61                0               0                0               0
1.0264                  0.997443       -10.11556     0.0003668875       -163.8508                0               0                0               0
1.033                  0.9973349       -10.20533     0.0003687773       -167.9629                0               0                0               0
1.0396                 0.9972252       -10.29544     0.0003693212       -171.9259                0               0                0               0
1.0462                 0.9971146        -10.3859     0.0003685424       -175.7167                0               0                0               0
1.05281                0.9970039       -10.47674      0.000366489       -179.3087                0               0                0               0
1.05941                0.9968938         -10.568      0.000363239        177.3283                0               0                0               0
1.06601                0.9967852       -10.65972     0.0003589075        174.2289                0               0                0               0
1.07261                0.9966782       -10.75195     0.0003536528        171.4317                0               0                0               0
1.07921                0.9965733       -10.84475     0.0003476869        168.9793                0               0                0               0
1.08581                0.9964711       -10.93817     0.0003412842         166.917                0               0                0               0
1.09241                0.9963713       -11.03229     0.0003347925        165.2898                0               0                0               0
1.09901                0.9962739       -11.12717     0.0003286417        164.1382                0               0                0               0
1.10561                0.9961788       -11.22286     0.0003233479        163.4904                0               0                0               0
1.11221                0.9960855       -11.31944     0.0003195092        163.3526                0               0                0               0
1.11881                0.9959935       -11.41697     0.0003177859        163.6971                0               0                0               0
1.12541                0.9959021        -11.5155     0.0003188628        164.4525                0               0                0               0
1.13201                0.9958104       -11.61508      0.000323391        165.5007                0               0                0               0
1.13861                0.9957178       -11.71576      0.000331922        166.6848                0               0                0               0
1.14521                0.9956229       -11.81756     0.0003448482        167.8295                0               0                0               0
1.15182                0.9955247       -11.92051     0.0003623698        168.7678                0               0                0               0
1.15842                0.9954224       -12.02463     0.0003844968         169.365                0               0                0               0
1.16502                0.9953145       -12.12994     0.0004110808        169.5314                0               0                0               0
1.17162                0.9952003       -12.23641     0.0004418624        169.2235                0               0                0               0
1.17822                0.9950785       -12.34405     0.0004765183        168.4357                0               0                0               0
1.18482                0.9949483       -12.45283     0.0005146991        167.1894                0               0                0               0
1.19142                0.9948088       -12.56272     0.0005560545        165.5214                0               0                0               0
1.19802                0.9946592        -12.6737      0.000600247        163.4758                0               0                0               0
1.20462                0.9944992       -12.78572     0.0006469597        161.0986                0               0                0               0
1.21122                0.9943281       -12.89875     0.0006958963        158.4337                0               0                0               0
1.21782                0.9941458       -13.01273     0.0007467814        155.5217                0               0                0               0
1.22442                0.9939523       -13.12762     0.0007993581        152.3988                0               0                0               0
1.23102                0.9937474       -13.24339     0.0008533848        149.0972                0               0                0               0
1.23762                0.9935318       -13.35999      0.000908635         145.645                0               0                0               0
1.24422                0.9933054       -13.47738     0.0009648931        142.0666                0               0                0               0
1.25083                0.9930691       -13.59555      0.001021956        138.3834                0               0                0               0
1.25743                0.9928235       -13.71446      0.001079628         134.614                0               0                0               0
1.26403                0.9925693        -13.8341      0.001137725        130.7748                0               0                0               0
1.27063                0.9923074       -13.95448      0.001196073        126.8803                0               0                0               0
1.27723                0.9920385        -14.0756      0.001254506        122.9431                0               0                0               0
1.28383                0.9917636       -14.19748      0.001312869        118.9746                0               0                0               0
1.29043                0.9914839       -14.32015       0.00137102        114.9852                0               0                0               0
1.29703                0.9911997       -14.44365      0.001428827        110.9841                0               0                0               0
1.30363                 0.990912       -14.56803      0.001486172        106.9797                0               0                0               0
1.31023                0.9906214       -14.69335      0.001542953        102.9799                0               0                0               0
1.31683                0.9903284       -14.81967      0.001599086        98.99165                0               0                0               0
1.32343                0.9900333       -14.94707      0.001654503        95.02169                0               0                0               0
1.33003                0.9897363       -15.07564      0.001709157        91.07617                0               0                0               0
1.33663                0.9894374       -15.20544      0.001763025        87.16081                0               0                0               0
1.34323                0.9891364       -15.33657      0.001816105        83.28095                0               0                0               0
1.34984                 0.988833       -15.46912      0.001868425        79.44153                0               0                0               0
1.35644                0.9885264       -15.60316      0.001920039        75.64709                0               0                0               0
1.36304                 0.988216       -15.73877       0.00197103        71.90176                0               0                0               0
1.36964                 0.987901       -15.87604      0.002021515        68.20921                0               0                0               0
1.37624                0.9875799       -16.01502      0.002071642        64.57262                0               0                0               0
1.38284                0.9872519       -16.15578      0.002121594        60.99462                0               0                0               0
1.38944                0.9869155       -16.29836      0.002171588        57.47725                0               0                0               0
1.39604                0.9865695       -16.44281      0.002221877        54.02183                0               0                0               0
1.40264                0.9862123       -16.58916      0.002272746        50.62896                0               0                0               0
1.40924                0.9858425       -16.73742      0.002324515        47.29839                0               0                0               0
1.41584                0.9854588        -16.8876      0.002377533          44.029                0               0                0               0
1.42244                0.9850599        -17.0397      0.002432178         40.8187                0               0                0               0
1.42904                0.9846448       -17.19372      0.002488853        37.66445                0               0                0               0
1.43564                 0.984212       -17.34963      0.002547975         34.5622                0               0                0               0
1.44224                0.9837608        -17.5074      0.002609978        31.50695                0               0                0               0
1.44884                0.9832904       -17.66701        0.0026753        28.49278                0               0                0               0
1.45545                0.9828003       -17.82842      0.002744381        25.51295                0               0                0               0
1.46205                0.9822899       -17.99159      0.002817648        22.56003                0               0                0               0
1.46865                0.9817592       -18.15651      0.002895517        19.62606                0               0                0               0
1.47525                0.9812081       -18.32312      0.002978374        16.70271                0               0                0               0
1.48185                0.9806369       -18.49142       0.00306658        13.78154                0               0                0               0
1.48845                0.9800457       -18.66138      0.003160455        10.85417                0               0                0               0
1.49505                0.9794353         -18.833      0.003260279        7.912467                0               0                0               0
1.50165                0.9788063       -19.00627      0.003366284        4.948798                0               0                0               0
1.50825                0.9781592       -19.18121      0.003478654        1.956137                0               0                0               0
1.51485                 0.977495       -19.35786       0.00359752       -1.071771                0               0                0               0
1.52145                0.9768146       -19.53626      0.003722966       -4.140331                0               0                0               0
1.52805                0.9761184       -19.71646      0.003855022       -7.254023                0               0                0               0
1.53465                0.9754076       -19.89855       0.00399367       -10.41639                0               0                0               0
1.54125                0.9746824        -20.0826      0.004138847       -13.63003                0               0                0               0
1.54785                0.9739437       -20.26873      0.004290448       -16.89667                0               0                0               0
1.55446                0.9731914       -20.45705      0.004448325       -20.21718                0               0                0               0
1.56106                 0.972426       -20.64768      0.004612298       -23.59166                0               0                0               0
1.56766                0.9716468       -20.84077      0.004782157       -27.01953                0               0                0               0
1.57426                0.9708539       -21.03646       0.00495766       -30.49962                0               0                0               0
1.58086                0.9700462        -21.2349      0.005138549       -34.03023                0               0                0               0
1.58746                0.9692229       -21.43625      0.005324541       -37.60924                0               0                0               0
1.59406                0.9683826       -21.64066      0.005515344       -41.23418                0               0                0               0
1.60066                0.9675236       -21.84827      0.005710651       -44.90229                0               0                0               0
1.60726                 0.966644       -22.05925      0.005910152       -48.61063                0               0                0               0
1.61386                0.9657417       -22.27371      0.006113531       -52.35604                0               0                0               0
1.62046                0.9648141       -22.49181      0.006320477        -56.1353                0               0                0               0
1.62706                0.9638586       -22.71365      0.006530681       -59.94511                0               0                0               0
1.63366                0.9628723       -22.93934      0.006743842       -63.78213                0               0                0               0
1.64026                0.9618522       -23.16897      0.006959673       -67.64302                0               0                0               0
1.64686                0.9607951        -23.4026        0.0071779       -71.52447                0               0                0               0
1.65347                 0.959698       -23.64031      0.007398271       -75.42322                0               0                0               0
1.66007                0.9585575       -23.88212      0.007620555       -79.33606                0               0                0               0
1.66667                0.9573705       -24.12806      0.007844548       -83.25986                0               0                0               0
1.67327                0.9561341       -24.37814      0.008070079        -87.1916                0               0                0               0
1.67987                0.9548453       -24.63236      0.008297004       -91.12834                0               0                0               0
1.68647                0.9535012       -24.89068      0.008525222       -95.06728                0               0                0               0
1.69307                0.9520995       -25.15309      0.008754672       -99.00574                0               0                0               0
1.69967                0.9506375       -25.41955      0.008985333       -102.9412                0               0                0               0
1.70627                0.9491134       -25.69002      0.009217236       -106.8712                0               0                0               0
1.71287                0.9475254       -25.96444      0.009450464       -110.7936                0               0                0               0
1.71947                0.9458718       -26.24278      0.009685146       -114.7064                0               0                0               0
1.72607                0.9441514         -26.525      0.009921472       -118.6076                0               0                0               0
1.73267                0.9423631       -26.81107       0.01015969       -122.4956                0               0                0               0
1.73927                0.9405061       -27.10096       0.01040011        -126.369                0               0                0               0
1.74587                0.9385799       -27.39466        0.0106431       -130.2266                0               0                0               0
1.75248                 0.936584       -27.69218       0.01088908       -134.0674                0               0                0               0
1.75908                 0.934518       -27.99355       0.01113855       -137.8908                0               0                0               0
1.76568                0.9323817       -28.29882       0.01139207       -141.6964                0               0                0               0
1.77228                0.9301748       -28.60805       0.01165023        -145.484                0               0                0               0
1.77888                 0.927897       -28.92133       0.01191372       -149.2539                0               0                0               0
1.78548                 0.925548       -29.23879       0.01218324       -153.0065                0               0                0               0
1.79208                0.9231268       -29.56055       0.01245958       -156.7426                0               0                0               0
1.79868                 0.920633       -29.88679       0.01274353       -160.4635                0               0                0               0
1.80528                0.9180651       -30.21769       0.01303595       -164.1704                0               0                0               0
1.81188                0.9154217       -30.55344       0.01333772       -167.8653                0               0                0               0
1.81848                0.9127007       -30.89428       0.01364974         -171.55                0               0                0               0
1.82508                0.9098999       -31.24043        0.0139729       -175.2268                0               0                0               0
1.83168                0.9070163       -31.59215       0.01430813       -178.8983                0               0                0               0
1.83828                0.9040463        -31.9497       0.01465633        177.4328                0               0                0               0
1.84488                0.9009861       -32.31331       0.01501838        173.7636                0               0                0               0
1.85149                 0.897831       -32.68326       0.01539515         170.091                0               0                0               0
1.85809                 0.894576        -33.0598       0.01578744        166.4121                0               0                0               0
1.86469                0.8912153       -33.44316       0.01619603        162.7237                0               0                0               0
1.87129                0.8877427       -33.83357       0.01662163        159.0225                0               0                0               0
1.87789                0.8841516       -34.23123       0.01706488        155.3056                0               0                0               0
1.88449                0.8804349       -34.63632       0.01752636          151.57                0               0                0               0
1.89109                0.8765849         -35.049       0.01800655        147.8127                0               0                0               0
1.89769                0.8725941       -35.46937       0.01850586        144.0312                0               0                0               0
1.90429                 0.868454       -35.89754       0.01902461        140.2228                0               0                0               0
1.91089                0.8641567       -36.33354         0.019563        136.3854                0               0                0               0
1.91749                0.8596935       -36.77738       0.02012117        132.5169                0               0                0               0
1.92409                0.8550561       -37.22903       0.02069914        128.6155                0               0                0               0
1.93069                0.8502362       -37.68839       0.02129684        124.6797                0               0                0               0
1.93729                0.8452254       -38.15535        0.0219141        120.7083                0               0                0               0
1.94389                0.8400159       -38.62974       0.02255065        116.7001                0               0                0               0
1.9505                 0.8345997       -39.11134       0.02320614        112.6546                0               0                0               0
1.9571                 0.8289696       -39.59989       0.02388012        108.5711                0               0                0               0
1.9637                 0.8231188       -40.09509       0.02457205        104.4493                0               0                0               0
1.9703                 0.8170405       -40.59661       0.02528132        100.2892                0               0                0               0
1.9769                  0.810729       -41.10403       0.02600723        96.09093                0               0                0               0
1.9835                 0.8041789       -41.61698       0.02674901        91.85468                0               0                0               0
1.9901                 0.7973854       -42.13498       0.02750581        87.58092                0               0                0               0
1.9967                 0.7903445       -42.65754       0.02827671        83.27023                0               0                0               0
2.0033                 0.7830527       -43.18415       0.02906074        78.92332                0               0                0               0
2.0099                 0.7755072       -43.71426       0.02985688        74.54097                0               0                0               0
2.0165                 0.7677057       -44.24729       0.03066402        70.12409                0               0                0               0
2.0231                 0.7596469       -44.78265       0.03148103        65.67364                0               0                0               0
2.0297                 0.7513297       -45.31971       0.03230674        61.19065                0               0                0               0
2.0363                 0.7427538       -45.85783       0.03313991         56.6762                0               0                0               0
2.0429                 0.7339196       -46.39632       0.03397929        52.13139                0               0                0               0
2.0495                 0.7248278        -46.9345       0.03482358        47.55737                0               0                0               0
2.05611                0.7154797       -47.47166       0.03567145        42.95531                0               0                0               0
2.06271                 0.705877       -48.00703       0.03652157        38.32638                0               0                0               0
2.06931                0.6960217       -48.53985       0.03737255        33.67176                0               0                0               0
2.07591                0.6859166       -49.06931       0.03822302        28.99263                0               0                0               0
2.08251                0.6755643       -49.59455       0.03907157        24.29016                0               0                0               0
2.08911                0.6649682       -50.11468        0.0399168        19.56553                0               0                0               0
2.09571                0.6541317       -50.62875        0.0407573        14.81989                0               0                0               0
2.10231                0.6430583       -51.13576       0.04159163        10.05438                0               0                0               0
2.10891                0.6317522       -51.63461        0.0424184        5.270135                0               0                0               0
2.11551                0.6202176       -52.12414       0.04323618       0.4682578                0               0                0               0
2.12211                0.6084589       -52.60309       0.04404358       -4.350159                0               0                0               0
2.12871                0.5964809       -53.07006       0.04483922       -9.184044                0               0                0               0
2.13531                0.5842887       -53.52354       0.04562171       -14.03235                0               0                0               0
2.14191                0.5718878       -53.96185       0.04638971       -18.89403                0               0                0               0
2.14851                 0.559284       -54.38314       0.04714189       -23.76809                0               0                0               0
2.15512                0.5464835       -54.78535       0.04787694       -28.65353                0               0                0               0
2.16172                0.5334933       -55.16619       0.04859359       -33.54937                0               0                0               0
2.16832                0.5203208       -55.52305        0.0492906       -38.45466                0               0                0               0
2.17492                0.5069745       -55.85307       0.04996676       -43.36846                0               0                0               0
2.18152                0.4934634       -56.15301       0.05062091       -48.28985                0               0                0               0
2.18812                0.4797978       -56.41919       0.05125193       -53.21792                0               0                0               0
2.19472                0.4659892       -56.64749       0.05185874       -58.15178                0               0                0               0
2.20132                0.4520503       -56.83326       0.05244031       -63.09056                0               0                0               0
2.20792                0.4379956       -56.97118       0.05299566       -68.03338                0               0                0               0
2.21452                0.4238413        -57.0553       0.05352387        -72.9794                0               0                0               0
2.22112                0.4096057       -57.07878       0.05402407       -77.92778                0               0                0               0
2.22772                0.3953095       -57.03392       0.05449544       -82.87768                0               0                0               0
2.23432                0.3809762       -56.91191       0.05493726       -87.82828                0               0                0               0
2.24092                0.3666322       -56.70277       0.05534882       -92.77877                0               0                0               0
2.24752                0.3523077        -56.3951        0.0557295       -97.72833                0               0                0               0
2.25413                0.3380367       -55.97596       0.05607876       -102.6762                0               0                0               0
2.26073                0.3238584       -55.43066       0.05639611       -107.6215                0               0                0               0
2.26733                 0.309817       -54.74254       0.05668114       -112.5635                0               0                0               0
2.27393                0.2959632       -53.89283       0.05693351       -117.5014                0               0                0               0
2.28053                0.2823548       -52.86052       0.05715294       -122.4344                0               0                0               0
2.28713                0.2690579       -51.62232       0.05733926       -127.3617                0               0                0               0
2.29373                0.2561482       -50.15282       0.05749234       -132.2825                0               0                0               0