! TOUCHSTONE file generated by CST MICROWAVE STUDIO
! Date and time: Tue Mar 11 13:57:54 2025
! Project name: transverse.cst
! Parameters = {Fracture=5; B=10; D=160; F=15; Feed=2.85625; L=100; M=10; R=0.384908; S=1; Theta=270; length=57.125; wave=114.25}
! Header version: 2024
! Port assignment regex: !\s*Touchstone port\s*([0-9]+)\s*=\s*(CST MWS port|CST DES external port|CST DES block port)\s*(.+)\s* \(\"(.*)\"\)(\s*mode\s*([0-9]+))?.*
! Touchstone port assignment:
! Touchstone port 1 = CST MWS port 1 ("")
! Touchstone port 2 = CST MWS port 2 ("")
# GHz S MA R 50
1                      0.9979158       -9.764502     0.0003350205       -122.6878                0               0                0               0
1.00658                0.9978151       -9.853352     0.0003537061       -127.7855                0               0                0               0
1.01316                0.9977079       -9.942465     0.0003713218       -132.8502                0               0                0               0
1.01974                0.9975951       -10.03181     0.0003877648       -137.8722                0               0                0               0
1.02632                 0.997478       -10.12136     0.0004029376        -142.842                0               0                0               0
1.03289                0.9973575       -10.21112     0.0004167498       -147.7502                0               0                0               0
1.03947                 0.997235       -10.30109      0.000429119       -152.5868                0               0                0               0
1.04605                0.9971115       -10.39127     0.0004399727       -157.3414                0               0                0               0
1.05263                0.9969883        -10.4817     0.0004492496       -162.0025                0               0                0               0
1.05921                0.9968665       -10.57243     0.0004569022       -166.5577                0               0                0               0
1.06579                 0.996747        -10.6635     0.0004628986       -170.9929                0               0                0               0
1.07237                0.9966306       -10.75497     0.0004672259       -175.2923                0               0                0               0
1.07895                0.9965181       -10.84691     0.0004698929       -179.4382                0               0                0               0
1.08553                0.9964101        -10.9394     0.0004709344        176.5895                0               0                0               0
1.09211                0.9963067       -11.03253     0.0004704161        172.8137                0               0                0               0
1.09868                0.9962079       -11.12639     0.0004684396        169.2599                0               0                0               0
1.10526                0.9961137       -11.22105     0.0004651497         165.957                0               0                0               0
1.11184                0.9960237        -11.3166     0.0004607416        162.9363                0               0                0               0
1.11842                0.9959373       -11.41312       0.00045547        160.2314                0               0                0               0
1.125                  0.9958537       -11.51071     0.0004496578        157.8771                0               0                0               0
1.13158                0.9957719       -11.60941     0.0004437053        155.9067                0               0                0               0
1.13816                0.9956907        -11.7093     0.0004380967        154.3482                0               0                0               0
1.14474                0.9956089       -11.81042     0.0004334022        153.2197                0               0                0               0
1.15132                 0.995525       -11.91281      0.000430271        152.5217                0               0                0               0
1.15789                0.9954376       -12.01651     0.0004294123        152.2306                0               0                0               0
1.16447                0.9953452       -12.12151      0.000431559        152.2919                0               0                0               0
1.17105                0.9952463       -12.22782     0.0004374179        152.6182                0               0                0               0
1.17763                0.9951396       -12.33544     0.0004476092        153.0942                0               0                0               0
1.18421                0.9950236       -12.44432     0.0004626108        153.5879                0               0                0               0
1.19079                0.9948971       -12.55445     0.0004827207        153.9677                0               0                0               0
1.19737                0.9947592       -12.66576     0.0005080456        154.1188                0               0                0               0
1.20395                0.9946088       -12.77821     0.0005385181        153.9547                0               0                0               0
1.21053                0.9944453       -12.89174      0.000573933        153.4219                0               0                0               0
1.21711                0.9942685       -13.00628     0.0006139896        152.4975                0               0                0               0
1.22368                0.9940778       -13.12177     0.0006583312        151.1829                0               0                0               0
1.23026                0.9938734       -13.23813     0.0007065772        149.4968                0               0                0               0
1.23684                0.9936556       -13.35531     0.0007583436        147.4679                0               0                0               0
1.24342                0.9934247       -13.47324     0.0008132562        145.1301                0               0                0               0
1.25                   0.9931816       -13.59188     0.0008709569        142.5184                0               0                0               0
1.25658                 0.992927       -13.71118     0.0009311071        139.6672                0               0                0               0
1.26316                 0.992662        -13.8311     0.0009933872        136.6083                0               0                0               0
1.26974                0.9923877       -13.95164      0.001057496        133.3712                0               0                0               0
1.27632                0.9921054       -14.07279      0.001123149        129.9819                0               0                0               0
1.28289                0.9918163       -14.19454      0.001190079         126.464                0               0                0               0
1.28947                0.9915219       -14.31693      0.001258031        122.8381                0               0                0               0
1.29605                0.9912232          -14.44      0.001326766        119.1227                0               0                0               0
1.30263                0.9909213       -14.56379      0.001396057        115.3341                0               0                0               0
1.30921                0.9906176       -14.68837      0.001465693        111.4867                0               0                0               0
1.31579                0.9903128       -14.81381      0.001535474        107.5935                0               0                0               0
1.32237                0.9900076       -14.94022      0.001605215        103.6661                0               0                0               0
1.32895                0.9897026       -15.06767       0.00167475        99.71479                0               0                0               0
1.33553                0.9893979       -15.19629      0.001743925        95.74912                0               0                0               0
1.34211                0.9890937       -15.32616      0.001812607        91.77766                0               0                0               0
1.34868                0.9887896       -15.45741      0.001880681        87.80825                0               0                0               0
1.35526                0.9884852       -15.59014      0.001948057        83.84812                0               0                0               0
1.36184                0.9881796       -15.72445      0.002014663         79.9039                0               0                0               0
1.36842                0.9878719       -15.86046      0.002080456        75.98172                0               0                0               0
1.375                  0.9875608       -15.99824      0.002145419        72.08723                0               0                0               0
1.38158                0.9872449       -16.13789      0.002209565        68.22562                0               0                0               0
1.38816                0.9869225       -16.27946      0.002272937        64.40165                0               0                0               0
1.39474                0.9865921       -16.42303      0.002335612         60.6196                0               0                0               0
1.40132                0.9862517       -16.56863      0.002397701        56.88332                0               0                0               0
1.40789                0.9858995       -16.71629      0.002459351        53.19614                0               0                0               0
1.41447                0.9855337       -16.86603      0.002520746        49.56088                0               0                0               0
1.42105                0.9851525       -17.01784      0.002582109        45.97977                0               0                0               0
1.42763                0.9847543        -17.1717      0.002643699         42.4544                0               0                0               0
1.43421                0.9843373        -17.3276      0.002705813         38.9857                0               0                0               0
1.44079                0.9839005        -17.4855      0.002768784        35.57385                0               0                0               0
1.44737                0.9834423       -17.64534       0.00283298        32.21825                0               0                0               0
1.45395                0.9829622       -17.80707      0.002898797        28.91747                0               0                0               0
1.46053                0.9824593       -17.97063      0.002966659        25.66921                0               0                0               0
1.46711                0.9819331       -18.13597      0.003037014         22.4703                0               0                0               0
1.47368                0.9813837       -18.30301      0.003110324        19.31673                0               0                0               0
1.48026                0.9808113       -18.47171      0.003187062        16.20367                0               0                0               0
1.48684                0.9802161       -18.64202      0.003267701        13.12553                0               0                0               0
1.49342                0.9795988        -18.8139      0.003352711        10.07606                0               0                0               0
1.5                    0.9789602       -18.98733      0.003442549        7.048505                0               0                0               0
1.50658                0.9783016       -19.16228      0.003537649        4.035712                0               0                0               0
1.51316                0.9776238       -19.33878      0.003638419        1.030311                0               0                0               0
1.51974                0.9769283       -19.51683      0.003745229       -1.975112                0               0                0               0
1.52632                0.9762164       -19.69649       0.00385841       -4.987839                0               0                0               0
1.53289                0.9754892       -19.87782      0.003978246       -8.014861                0               0                0               0
1.53947                0.9747482       -20.06089      0.004104973       -11.06271                0               0                0               0
1.54605                0.9739942       -20.24582      0.004238773       -14.13737                0               0                0               0
1.55263                0.9732282       -20.43272      0.004379776       -17.24411                0               0                0               0
1.55921                 0.972451       -20.62173      0.004528059       -20.38747                0               0                0               0
1.56579                0.9716627         -20.813      0.004683648        -23.5712                0               0                0               0
1.57237                0.9708637       -21.00671      0.004846518       -26.79824                0               0                0               0
1.57895                0.9700535       -21.20303      0.005016601       -30.07074                0               0                0               0
1.58553                0.9692315       -21.40214      0.005193782       -33.39008                0               0                0               0
1.59211                0.9683966       -21.60424       0.00537791       -36.75693                0               0                0               0
1.59868                0.9675474       -21.80951      0.005568801       -40.17131                0               0                0               0
1.60526                0.9666822       -22.01813      0.005766236       -43.63267                0               0                0               0
1.61184                0.9657984       -22.23029      0.005969978       -47.13993                0               0                0               0
1.61842                0.9648938       -22.44616      0.006179764       -50.69156                0               0                0               0
1.625                  0.9639652       -22.66589       0.00639532        -54.2857                0               0                0               0
1.63158                0.9630094       -22.88963      0.006616357       -57.92016                0               0                0               0
1.63816                0.9620231        -23.1175      0.006842582       -61.59252                0               0                0               0
1.64474                0.9610025       -23.34959      0.007073699       -65.30016                0               0                0               0
1.65132                0.9599438         -23.586      0.007309414       -69.04035                0               0                0               0
1.65789                0.9588432       -23.82677      0.007549439       -72.81025                0               0                0               0
1.66447                0.9576968       -24.07195      0.007793499       -76.60699                0               0                0               0
1.67105                0.9565007       -24.32156       0.00804133       -80.42766                0               0                0               0
1.67763                0.9552513       -24.57557      0.008292688       -84.26938                0               0                0               0
1.68421                 0.953945       -24.83396      0.008547351       -88.12929                0               0                0               0
1.69079                0.9525785        -25.0967      0.008805121        -92.0046                0               0                0               0
1.69737                0.9511486       -25.36372      0.009065834        -95.8926                0               0                0               0
1.70395                0.9496527       -25.63494      0.009329354       -99.79066                0               0                0               0
1.71053                0.9480885       -25.91028      0.009595584       -103.6963                0               0                0               0
1.71711                0.9464537       -26.18967      0.009864466       -107.6071                0               0                0               0
1.72368                0.9447469       -26.47301       0.01013599       -111.5208                0               0                0               0
1.73026                0.9429666       -26.76022       0.01041017       -115.4354                0               0                0               0
1.73684                0.9411119       -27.05122        0.0106871       -119.3488                0               0                0               0
1.74342                0.9391822       -27.34595        0.0109669       -123.2594                0               0                0               0
1.75                   0.9371772       -27.64436       0.01124975       -127.1654                0               0                0               0
1.75658                0.9350967       -27.94642       0.01153589       -131.0657                0               0                0               0
1.76316                0.9329411       -28.25212       0.01182559       -134.9588                0               0                0               0
1.76974                0.9307105       -28.56148       0.01211922        -138.844                0               0                0               0
1.77632                0.9284049       -28.87454       0.01241715       -142.7203                0               0                0               0
1.78289                0.9260252       -29.19138       0.01271985       -146.5874                0               0                0               0
1.78947                0.9235712       -29.51209        0.0130278       -150.4448                0               0                0               0
1.79605                 0.921043       -29.83681       0.01334158       -154.2926                0               0                0               0
1.80263                0.9184405        -30.1657       0.01366176       -158.1309                0               0                0               0
1.80921                0.9157632       -30.49895       0.01398901       -161.9601                0               0                0               0
1.81579                  0.91301       -30.83677       0.01432399        -165.781                0               0                0               0
1.82237                0.9101794        -31.1794       0.01466742       -169.5945                0               0                0               0
1.82895                0.9072698        -31.5271       0.01502004       -173.4016                0               0                0               0
1.83553                0.9042785       -31.88014        0.0153826       -177.2038                0               0                0               0
1.84211                0.9012024       -32.23881       0.01575589        178.9974                0               0                0               0
1.84868                0.8980378        -32.6034       0.01614067        175.2002                0               0                0               0
1.85526                0.8947802       -32.97419       0.01653772        171.4029                0               0                0               0
1.86184                0.8914244       -33.35147       0.01694779        167.6033                0               0                0               0
1.86842                 0.887965       -33.73552       0.01737163        163.7993                0               0                0               0
1.875                  0.8843953       -34.12659       0.01780994        159.9886                0               0                0               0
1.88158                0.8807086       -34.52492       0.01826339        156.1691                0               0                0               0
1.88816                0.8768973       -34.93073        0.0187326        152.3384                0               0                0               0
1.89474                0.8729536       -35.34418       0.01921815        148.4943                0               0                0               0
1.90132                0.8688692       -35.76541       0.01972053        144.6344                0               0                0               0
1.90789                0.8646353       -36.19453       0.02024018        140.7568                0               0                0               0
1.91447                0.8602434       -36.63159       0.02077747        136.8592                0               0                0               0
1.92105                0.8556842       -37.07658       0.02133267        132.9397                0               0                0               0
1.92763                 0.850949       -37.52947       0.02190599        128.9966                0               0                0               0
1.93421                0.8460286       -37.99017       0.02249755        125.0281                0               0                0               0
1.94079                0.8409146       -38.45851       0.02310737        121.0328                0               0                0               0
1.94737                0.8355982       -38.93431       0.02373538        117.0093                0               0                0               0
1.95395                0.8300715       -39.41731       0.02438143        112.9564                0               0                0               0
1.96053                0.8243267       -39.90721       0.02504528        108.8733                0               0                0               0
1.96711                0.8183568       -40.40367       0.02572658        104.7592                0               0                0               0
1.97368                0.8121551       -40.90625       0.02642493        100.6133                0               0                0               0
1.98026                0.8057157       -41.41454        0.0271398        96.43539                0               0                0               0
1.98684                0.7990336       -41.92805        0.0278706         92.2251                0               0                0               0
1.99342                 0.792104       -42.44625       0.02861666        87.98233                0               0                0               0
2                      0.7849236       -42.96859       0.02937723        83.70713                0               0                0               0
2.00658                 0.777489       -43.49445       0.03015148        79.39967                0               0                0               0
2.01316                0.7697985       -44.02323       0.03093851        75.06023                0               0                0               0
2.01974                0.7618504       -44.55428       0.03173737        70.68923                0               0                0               0
2.02632                0.7536442       -45.08692       0.03254702        66.28717                0               0                0               0
2.03289                0.7451801       -45.62045       0.03336639        61.85463                0               0                0               0
2.03947                0.7364587       -46.15418       0.03419433         57.3923                0               0                0               0
2.04605                0.7274815       -46.68734       0.03502966        52.90091                0               0                0               0
2.05263                0.7182506       -47.21921       0.03587114        48.38125                0               0                0               0
2.05921                0.7087685       -47.74901       0.03671751        43.83417                0               0                0               0
2.06579                0.6990383       -48.27596       0.03756745        39.26056                0               0                0               0
2.07237                0.6890632       -48.79923       0.03841962        34.66132                0               0                0               0
2.07895                0.6788472         -49.318       0.03927264         30.0374                0               0                0               0
2.08553                0.6683946        -49.8314       0.04012513        25.38977                0               0                0               0
2.09211                0.6577095       -50.33854       0.04097566        20.71939                0               0                0               0
2.09868                0.6467966       -50.83847       0.04182281        16.02726                0               0                0               0
2.10526                0.6356605       -51.33019       0.04266514        11.31437                0               0                0               0
2.11184                0.6243064       -51.81265       0.04350121        6.581704                0               0                0               0
2.11842                0.6127391       -52.28472       0.04432954        1.830258                0               0                0               0
2.125                  0.6009637       -52.74516        0.0451487       -2.938978                0               0                0               0
2.13158                0.5889856       -53.19266       0.04595725       -7.725026                0               0                0               0
2.13816                0.5768103       -53.62577       0.04675374       -12.52691                0               0                0               0
2.14474                0.5644432       -54.04285       0.04753675       -17.34366                0               0                0               0
2.15132                0.5518902       -54.44216       0.04830489       -22.17433                0               0                0               0
2.15789                0.5391575       -54.82171       0.04905675       -27.01797                0               0                0               0
2.16447                0.5262515       -55.17927         0.049791       -31.87364                0               0                0               0
2.17105                0.5131793       -55.51236       0.05050627       -36.74043                0               0                0               0
2.17763                0.4999486       -55.81819       0.05120129       -41.61741                0               0                0               0
2.18421                0.4865676        -56.0936       0.05187479        -46.5037                0               0                0               0
2.19079                0.4730456       -56.33501       0.05252553       -51.39841                0               0                0               0
2.19737                 0.459393       -56.53837       0.05315233       -56.30064                0               0                0               0
2.20395                0.4456214       -56.69909       0.05375406       -61.20955                0               0                0               0
2.21053                0.4317438       -56.81194       0.05432962       -66.12427                0               0                0               0
2.21711                0.4177752       -56.87099       0.05487798       -71.04395                0               0                0               0
2.22368                0.4037324       -56.86945       0.05539815       -75.96775                0               0                0               0
2.23026                0.3896347       -56.79962       0.05588919       -80.89484                0               0                0               0
2.23684                 0.375504        -56.6527       0.05635026        -85.8244                0               0                0               0
2.24342                0.3613654       -56.41865       0.05678054        -90.7556                0               0                0               0
2.25                   0.3472476       -56.08603       0.05717929       -95.68763                0               0                0               0
2.25658                0.3331834       -55.64179       0.05754584       -100.6197                0               0                0               0
2.26316                0.3192105        -55.0711       0.05787959        -105.551                0               0                0               0
2.26974                 0.305372       -54.35708          0.05818       -110.4806                0               0                0               0
2.27632                0.2917178       -53.48074       0.05844663       -115.4079                0               0                0               0
2.28289                0.2783046       -52.42073       0.05867907       -120.3321                0               0                0               0
2.28947                0.2651982       -51.15342       0.05887705       -125.2522                0               0                0               0