! TOUCHSTONE file generated by CST MICROWAVE STUDIO
! Date and time: Tue Mar 11 13:58:23 2025
! Project name: transverse.cst
! Parameters = {Fracture=1; B=12.5; D=160; F=25; Feed=2.85625; L=100; M=10; R=0.384908; S=1; Theta=270; length=57.125; wave=114.25}
! Header version: 2024
! Port assignment regex: !\s*Touchstone port\s*([0-9]+)\s*=\s*(CST MWS port|CST DES external port|CST DES block port)\s*(.+)\s* \(\"(.*)\"\)(\s*mode\s*([0-9]+))?.*
! Touchstone port assignment:
! Touchstone port 1 = CST MWS port 1 ("")
! Touchstone port 2 = CST MWS port 2 ("")
# GHz S MA R 50
1                      0.9975973       -10.10345     0.0004151265       -171.1913                0               0                0               0
1.00658                0.9975388       -10.19266     0.0004099947       -175.5824                0               0                0               0
1.01316                0.9974813       -10.28264      0.000403328       -179.7405                0               0                0               0
1.01974                0.9974239       -10.37342     0.0003952206        176.3685                0               0                0               0
1.02632                0.9973661       -10.46505     0.0003858073        172.7857                0               0                0               0
1.03289                0.9973072       -10.55753     0.0003752746        169.5601                0               0                0               0
1.03947                0.9972464       -10.65091     0.0003638723        166.7492                0               0                0               0
1.04605                0.9971829       -10.74519     0.0003519305        164.4183                0               0                0               0
1.05263                0.9971159       -10.84037     0.0003398769        162.6391                0               0                0               0
1.05921                0.9970446       -10.93647     0.0003282558        161.4832                0               0                0               0
1.06579                0.9969682       -11.03347     0.0003177428        161.0119                0               0                0               0
1.07237                0.9968862       -11.13136     0.0003091468        161.2577                0               0                0               0
1.07895                0.9967978       -11.23012     0.0003033844        162.1997                0               0                0               0
1.08553                0.9967023       -11.32974      0.000301415        163.7393                0               0                0               0
1.09211                0.9965995       -11.43018     0.0003041317        165.6883                0               0                0               0
1.09868                0.9964889       -11.53142     0.0003122306        167.7852                0               0                0               0
1.10526                0.9963705       -11.63343     0.0003261049        169.7425                0               0                0               0
1.11184                0.9962439       -11.73616     0.0003458096        171.3062                0               0                0               0
1.11842                0.9961092       -11.83961     0.0003711081           172.3                0               0                0               0
1.125                  0.9959666       -11.94372     0.0004015676        172.6368                0               0                0               0
1.13158                0.9958162       -12.04848      0.000436661        172.3048                0               0                0               0
1.13816                0.9956583       -12.15387      0.000475843        171.3422                0               0                0               0
1.14474                0.9954936       -12.25986     0.0005185958        169.8132                0               0                0               0
1.15132                0.9953225       -12.36645     0.0005644487        167.7908                0               0                0               0
1.15789                0.9951454       -12.47361     0.0006129816         165.347                0               0                0               0
1.16447                0.9949632       -12.58137     0.0006638225        162.5476                0               0                0               0
1.17105                0.9947764       -12.68973     0.0007166394          159.45                0               0                0               0
1.17763                0.9945854       -12.79869     0.0007711332        156.1038                0               0                0               0
1.18421                0.9943912       -12.90829     0.0008270322        152.5508                0               0                0               0
1.19079                0.9941942       -13.01855     0.0008840854        148.8262                0               0                0               0
1.19737                0.9939948       -13.12951     0.0009420587        144.9599                0               0                0               0
1.20395                0.9937936       -13.24122      0.001000733        140.9768                0               0                0               0
1.21053                0.9935909       -13.35371      0.001059898        136.8983                0               0                0               0
1.21711                0.9933868       -13.46705      0.001119358        132.7423                0               0                0               0
1.22368                0.9931816       -13.58129      0.001178923        128.5246                0               0                0               0
1.23026                0.9929752       -13.69647      0.001238412        124.2586                0               0                0               0
1.23684                0.9927673       -13.81268      0.001297654        119.9559                0               0                0               0
1.24342                0.9925579       -13.92995      0.001356486         115.627                0               0                0               0
1.25                   0.9923465       -14.04835      0.001414753        111.2811                0               0                0               0
1.25658                0.9921325       -14.16793      0.001472312        106.9264                0               0                0               0
1.26316                0.9919154       -14.28874      0.001529029        102.5703                0               0                0               0
1.26974                0.9916946       -14.41082      0.001584783        98.21977                0               0                0               0
1.27632                 0.991469       -14.53421      0.001639464        93.88099                0               0                0               0
1.28289                0.9912379       -14.65895      0.001692979        89.55985                0               0                0               0
1.28947                0.9910004       -14.78506      0.001745247         85.2618                0               0                0               0
1.29605                0.9907557       -14.91257      0.001796207          80.992                0               0                0               0
1.30263                0.9905028       -15.04147      0.001845814        76.75532                0               0                0               0
1.30921                0.9902408       -15.17178      0.001894044        72.55638                0               0                0               0
1.31579                0.9899689        -15.3035      0.001940895        68.39956                0               0                0               0
1.32237                0.9896866       -15.43662      0.001986385        64.28903                0               0                0               0
1.32895                0.9893928       -15.57112       0.00203056        60.22869                0               0                0               0
1.33553                0.9890872         -15.707       0.00207349        56.22222                0               0                0               0
1.34211                0.9887694       -15.84422      0.002115273        52.27301                0               0                0               0
1.34868                 0.988439       -15.98278      0.002156033        48.38415                0               0                0               0
1.35526                0.9880958       -16.12264      0.002195926        44.55833                0               0                0               0
1.36184                0.9877397        -16.2638      0.002235135        40.79788                0               0                0               0
1.36842                0.9873707       -16.40622      0.002273877         37.1046                0               0                0               0
1.375                  0.9869894       -16.54989      0.002312394        33.47975                0               0                0               0
1.38158                0.9865957       -16.69482       0.00235096        29.92399                0               0                0               0
1.38816                0.9861901       -16.84098      0.002389875        26.43725                0               0                0               0
1.39474                0.9857731       -16.98838      0.002429464        23.01871                0               0                0               0
1.40132                0.9853455       -17.13705      0.002470075        19.66668                0               0                0               0
1.40789                0.9849074       -17.28699      0.002512074        16.37861                0               0                0               0
1.41447                0.9844599       -17.43823      0.002555843        13.15104                0               0                0               0
1.42105                0.9840032       -17.59082      0.002601769        9.979557                0               0                0               0
1.42763                0.9835384       -17.74481      0.002650246        6.858883                0               0                0               0
1.43421                0.9830654       -17.90024       0.00270166        3.782887                0               0                0               0
1.44079                0.9825851        -18.0572      0.002756392       0.7446978                0               0                0               0
1.44737                0.9820977       -18.21575      0.002814801       -2.263177                0               0                0               0
1.45395                0.9816035       -18.37597      0.002877225       -5.248686                0               0                0               0
1.46053                0.9811025       -18.53796       0.00294397       -8.220058                0               0                0               0
1.46711                0.9805945       -18.70182      0.003015307       -11.18561                0               0                0               0
1.47368                0.9800794       -18.86763      0.003091468       -14.15353                0               0                0               0
1.48026                0.9795569       -19.03549      0.003172641        -17.1317                0               0                0               0
1.48684                0.9790262       -19.20552      0.003258963       -20.12753                0               0                0               0
1.49342                0.9784866       -19.37781      0.003350531       -23.14778                0               0                0               0
1.5                    0.9779371       -19.55246      0.003447388       -26.19844                0               0                0               0
1.50658                0.9773768       -19.72956      0.003549535       -29.28466                0               0                0               0
1.51316                0.9768043       -19.90921      0.003656927        -32.4107                0               0                0               0
1.51974                0.9762183       -20.09149      0.003769478       -35.57988                0               0                0               0
1.52632                0.9756174       -20.27648      0.003887064       -38.79463                0               0                0               0
1.53289                    0.975       -20.46425      0.004009526       -42.05652                0               0                0               0
1.53947                0.9743644       -20.65486      0.004136676       -45.36629                0               0                0               0
1.54605                 0.973709       -20.84838      0.004268302       -48.72394                0               0                0               0
1.55263                0.9730325       -21.04484       0.00440417       -52.12882                0               0                0               0
1.55921                0.9723328        -21.2443      0.004544028       -55.57971                0               0                0               0
1.56579                0.9716085       -21.44679      0.004687615       -59.07486                0               0                0               0
1.57237                0.9708582       -21.65233       0.00483466       -62.61214                0               0                0               0
1.57895                0.9700802       -21.86095      0.004984888       -66.18906                0               0                0               0
1.58553                0.9692734       -22.07266      0.005138025       -69.80287                0               0                0               0
1.59211                0.9684365        -22.2875        0.0052938       -73.45061                0               0                0               0
1.59868                0.9675682       -22.50547      0.005451951       -77.12918                0               0                0               0
1.60526                0.9666678        -22.7266      0.005612223       -80.83535                0               0                0               0
1.61184                0.9657341       -22.95091      0.005774382       -84.56586                0               0                0               0
1.61842                0.9647666       -23.17841      0.005938203       -88.31741                0               0                0               0
1.625                  0.9637643       -23.40916       0.00610349       -92.08672                0               0                0               0
1.63158                0.9627269       -23.64318      0.006270067       -95.87053                0               0                0               0
1.63816                0.9616537       -23.88053      0.006437785       -99.66567                0               0                0               0
1.64474                 0.960544       -24.12126      0.006606527        -103.469                0               0                0               0
1.65132                0.9593975       -24.36546      0.006776205       -107.2776                0               0                0               0
1.65789                0.9582137       -24.61319      0.006946772       -111.0885                0               0                0               0
1.66447                0.9569918       -24.86456      0.007118216        -114.899                0               0                0               0
1.67105                0.9557312       -25.11967      0.007290569       -118.7066                0               0                0               0
1.67763                0.9544311       -25.37864      0.007463902       -122.5087                0               0                0               0
1.68421                0.9530904        -25.6416      0.007638336       -126.3032                0               0                0               0
1.69079                 0.951708        -25.9087      0.007814036       -130.0882                0               0                0               0
1.69737                0.9502826       -26.18009      0.007991219       -133.8617                0               0                0               0
1.70395                0.9488123       -26.45593      0.008170146       -137.6222                0               0                0               0
1.71053                0.9472954       -26.73638      0.008351138       -141.3685                0               0                0               0
1.71711                0.9457296       -27.02162      0.008534556       -145.0995                0               0                0               0
1.72368                0.9441123       -27.31182      0.008720817       -148.8146                0               0                0               0
1.73026                0.9424409       -27.60716      0.008910387       -152.5133                0               0                0               0
1.73684                0.9407121       -27.90781      0.009103777       -156.1955                0               0                0               0
1.74342                0.9389225       -28.21394      0.009301541       -159.8615                0               0                0               0
1.75                   0.9370686       -28.52572      0.009504278       -163.5119                0               0                0               0
1.75658                0.9351461        -28.8433      0.009712619       -167.1476                0               0                0               0
1.76316                0.9331509       -29.16684      0.009927229       -170.7698                0               0                0               0
1.76974                0.9310785       -29.49647        0.0101488       -174.3801                0               0                0               0
1.77632                0.9289244        -29.8323       0.01037803       -177.9805                0               0                0               0
1.78289                0.9266834       -30.17445       0.01061566        178.4268                0               0                0               0
1.78947                 0.924351       -30.52302        0.0108624        174.8393                0               0                0               0
1.79605                0.9219217       -30.87808       0.01111897        171.2544                0               0                0               0
1.80263                0.9193905        -31.2397       0.01138608        167.6692                0               0                0               0
1.80921                0.9167523       -31.60791       0.01166443        164.0804                0               0                0               0
1.81579                 0.914002       -31.98277       0.01195467         160.485                0               0                0               0
1.82237                0.9111345       -32.36427       0.01225742        156.8797                0               0                0               0
1.82895                0.9081447       -32.75243       0.01257326        153.2613                0               0                0               0
1.83553                0.9050277       -33.14724       0.01290272        149.6264                0               0                0               0
1.84211                0.9017788       -33.54868       0.01324626         145.972                0               0                0               0
1.84868                0.8983932       -33.95673        0.0136043        142.2951                0               0                0               0
1.85526                0.8948666       -34.37135       0.01397716        138.5927                0               0                0               0
1.86184                0.8911944       -34.79251       0.01436513        134.8623                0               0                0               0
1.86842                0.8873725       -35.22018       0.01476838        131.1014                0               0                0               0
1.875                  0.8833967        -35.6543       0.01518703        127.3078                0               0                0               0
1.88158                0.8792631       -36.09485       0.01562113        123.4797                0               0                0               0
1.88816                0.8749678       -36.54178       0.01607064        119.6153                0               0                0               0
1.89474                0.8705071       -36.99506       0.01653545        115.7133                0               0                0               0
1.90132                 0.865877       -37.45469       0.01701537        111.7727                0               0                0               0
1.90789                0.8610739       -37.92062       0.01751014        107.7925                0               0                0               0
1.91447                0.8560939       -38.39286       0.01801942        103.7723                0               0                0               0
1.92105                0.8509332       -38.87139       0.01854283        99.71174                0               0                0               0
1.92763                0.8455878       -39.35621        0.0190799        95.61065                0               0                0               0
1.93421                0.8400536       -39.84734        0.0196301        91.46915                0               0                0               0
1.94079                0.8343263       -40.34478       0.02019285        87.28753                0               0                0               0
1.94737                0.8284012       -40.84854       0.02076751        83.06626                0               0                0               0
1.95395                0.8222737       -41.35863       0.02135339        78.80592                0               0                0               0
1.96053                0.8159388       -41.87505       0.02194976        74.50724                0               0                0               0
1.96711                0.8093912       -42.39779       0.02255583        70.17108                0               0                0               0
1.97368                0.8026252       -42.92682       0.02317076        65.79834                0               0                0               0
1.98026                0.7956352       -43.46212       0.02379371        61.39006                0               0                0               0
1.98684                0.7884147       -44.00362       0.02442378         56.9473                0               0                0               0
1.99342                0.7809578       -44.55121       0.02506003        52.47118                0               0                0               0
2                      0.7732576       -45.10478       0.02570152        47.96286                0               0                0               0
2.00658                0.7653076       -45.66413       0.02634725        43.42353                0               0                0               0
2.01316                0.7571008       -46.22905       0.02699622        38.85441                0               0                0               0
2.01974                0.7486305       -46.79924       0.02764742        34.25671                0               0                0               0
2.02632                0.7398898       -47.37434       0.02829979        29.63165                0               0                0               0
2.03289                0.7308721       -47.95395       0.02895229        24.98044                0               0                0               0
2.03947                0.7215707       -48.53754       0.02960386        20.30432                0               0                0               0
2.04605                0.7119796       -49.12449       0.03025341        15.60447                0               0                0               0
2.05263                0.7020929       -49.71412       0.03089988        10.88208                0               0                0               0
2.05921                0.6919054        -50.3056       0.03154218        6.138326                0               0                0               0
2.06579                0.6814127         -50.898       0.03217924        1.374358                0               0                0               0
2.07237                0.6706105       -51.49024       0.03280997       -3.408689                0               0                0               0
2.07895                0.6594961        -52.0811       0.03343331       -8.209711                0               0                0               0
2.08553                0.6480676       -52.66923       0.03404819       -13.02761                0               0                0               0
2.09211                0.6363239       -53.25307       0.03465356       -17.86134                0               0                0               0
2.09868                0.6242655        -53.8309       0.03524839       -22.70983                0               0                0               0
2.10526                0.6118939       -54.40078       0.03583164       -27.57208                0               0                0               0
2.11184                0.5992124       -54.96059       0.03640231       -32.44709                0               0                0               0
2.11842                0.5862256       -55.50792       0.03695941       -37.33388                0               0                0               0
2.125                  0.5729399       -56.04013       0.03750199       -42.23148                0               0                0               0
2.13158                0.5593633       -56.55426        0.0380291       -47.13897                0               0                0               0
2.13816                0.5455058       -57.04705       0.03853983       -52.05543                0               0                0               0
2.14474                0.5313793       -57.51486       0.03903329       -56.97995                0               0                0               0
2.15132                0.5169977       -57.95368       0.03950866       -61.91166                0               0                0               0
2.15789                0.5023771       -58.35901       0.03996509       -66.84967                0               0                0               0
2.16447                0.4875358       -58.72586       0.04040182       -71.79316                0               0                0               0
2.17105                0.4724943       -59.04867        0.0408181       -76.74126                0               0                0               0
2.17763                0.4572758       -59.32124       0.04121324       -81.69315                0               0                0               0
2.18421                0.4419059       -59.53659       0.04158655       -86.64802                0               0                0               0
2.19079                 0.426413       -59.68695       0.04193744       -91.60506                0               0                0               0
2.19737                0.4108284       -59.76354       0.04226533       -96.56347                0               0                0               0
2.20395                0.3951867       -59.75652       0.04256969       -101.5225                0               0                0               0
2.21053                0.3795258       -59.65477       0.04285004       -106.4813                0               0                0               0
2.21711                0.3638873       -59.44575       0.04310595       -111.4391                0               0                0               0
2.22368                0.3483172       -59.11533       0.04333706       -116.3951                0               0                0               0
2.23026                 0.332866       -58.64755       0.04354302       -121.3486                0               0                0               0
2.23684                0.3175899       -58.02443       0.04372357       -126.2988                0               0                0               0
2.24342                0.3025505       -57.22586       0.04387849        -131.245                0               0                0               0
2.25                    0.287817       -56.22941       0.04400761       -136.1863                0               0                0               0
2.25658                0.2734661        -55.0104       0.04411082        -141.122                0               0                0               0
2.26316                0.2595836       -53.54215       0.04418807       -146.0513                0               0                0               0
2.26974                0.2462651       -51.79646       0.04423937       -150.9735                0               0                0               0
2.27632                0.2336167       -49.74479       0.04426477       -155.8878                0               0                0               0
2.28289                0.2217559       -47.35998        0.0442644       -160.7933                0               0                0               0
2.28947                0.2108102       -44.61909       0.04423843       -165.6893                0               0                0               0