! TOUCHSTONE file generated by CST MICROWAVE STUDIO
! Date and time: Tue Mar 11 13:56:45 2025
! Project name: transverse.cst
! Parameters = {Fracture=5; B=12.5; D=160; F=5; Feed=2.85625; L=100; M=10; R=0.384908; S=1; Theta=90; length=57.125; wave=114.25}
! Header version: 2024
! Port assignment regex: !\s*Touchstone port\s*([0-9]+)\s*=\s*(CST MWS port|CST DES external port|CST DES block port)\s*(.+)\s* \(\"(.*)\"\)(\s*mode\s*([0-9]+))?.*
! Touchstone port assignment:
! Touchstone port 1 = CST MWS port 1 ("")
! Touchstone port 2 = CST MWS port 2 ("")
# GHz S MA R 50
1                      0.9978873       -9.732248     0.0002764829       -120.3215                0               0                0               0
1.00658                0.9978028       -9.820783      0.000299517       -125.1297                0               0                0               0
1.01316                 0.997711       -9.909726     0.0003218538       -130.0284                0               0                0               0
1.01974                0.9976124       -9.999031     0.0003433627       -134.9888                0               0                0               0
1.02632                0.9975079       -10.08866     0.0003639177       -139.9889                0               0                0               0
1.03289                0.9973979       -10.17859     0.0003833968       -145.0109                0               0                0               0
1.03947                0.9972836       -10.26879     0.0004016823       -150.0403                0               0                0               0
1.04605                0.9971659       -10.35926     0.0004186613       -155.0648                0               0                0               0
1.05263                 0.997046       -10.44999     0.0004342261       -160.0733                0               0                0               0
1.05921                0.9969246       -10.54099     0.0004482745       -165.0555                0               0                0               0
1.06579                 0.996803       -10.63228     0.0004607115       -170.0016                0               0                0               0
1.07237                0.9966822       -10.72391     0.0004714495       -174.9019                0               0                0               0
1.07895                0.9965632        -10.8159     0.0004804096       -179.7464                0               0                0               0
1.08553                0.9964465       -10.90831     0.0004875227        175.4756                0               0                0               0
1.09211                0.9963332       -11.00121     0.0004927312        170.7755                0               0                0               0
1.09868                0.9962238       -11.09466     0.0004959903        166.1662                0               0                0               0
1.10526                0.9961185       -11.18874       0.00049727        161.6619                0               0                0               0
1.11184                0.9960176       -11.28352     0.0004965575         157.279                0               0                0               0
1.11842                0.9959212       -11.37909     0.0004938599        153.0365                0               0                0               0
1.125                   0.995829       -11.47553     0.0004892078        148.9565                0               0                0               0
1.13158                0.9957405       -11.57292     0.0004826596        145.0649                0               0                0               0
1.13816                0.9956552       -11.67134     0.0004743068        141.3924                0               0                0               0
1.14474                0.9955722       -11.77086     0.0004642814        137.9751                0               0                0               0
1.15132                0.9954909       -11.87154     0.0004527645        134.8557                0               0                0               0
1.15789                0.9954099       -11.97345     0.0004399976        132.0839                0               0                0               0
1.16447                 0.995328       -12.07664     0.0004262962         129.717                0               0                0               0
1.17105                 0.995244       -12.18113      0.000412067        127.8193                0               0                0               0
1.17763                0.9951564       -12.28697     0.0003978262        126.4589                0               0                0               0
1.18421                 0.995064       -12.39416     0.0003842167        125.7023                0               0                0               0
1.19079                0.9949652       -12.50271     0.0003720198        125.6023                0               0                0               0
1.19737                0.9948587        -12.6126      0.000362149        126.1813                0               0                0               0
1.20395                0.9947433       -12.72383     0.0003556142        127.4082                0               0                0               0
1.21053                0.9946176       -12.83636     0.0003534419        129.1785                0               0                0               0
1.21711                0.9944809       -12.95016     0.0003565555        131.3065                0               0                0               0
1.22368                0.9943321       -13.06518     0.0003656398        133.5448                0               0                0               0
1.23026                0.9941704       -13.18136     0.0003810408        135.6284                0               0                0               0
1.23684                0.9939954       -13.29865     0.0004027415         137.327                0               0                0               0
1.24342                 0.993807         -13.417     0.0004304193        138.4821                0               0                0               0
1.25                   0.9936047       -13.53635      0.000463549         139.016                0               0                0               0
1.25658                 0.993389       -13.65663     0.0005015102        138.9187                0               0                0               0
1.26316                  0.99316        -13.7778     0.0005436661        138.2258                0               0                0               0
1.26974                0.9929184       -13.89981     0.0005894122        136.9968                0               0                0               0
1.27632                0.9926645       -14.02262     0.0006381965        135.3003                0               0                0               0
1.28289                0.9923995       -14.14621     0.0006895257        133.2042                0               0                0               0
1.28947                0.9921243       -14.27054     0.0007429614        130.7713                0               0                0               0
1.29605                0.9918398       -14.39563     0.0007981135        128.0571                0               0                0               0
1.30263                0.9915471       -14.52146     0.0008546327        125.1098                0               0                0               0
1.30921                0.9912475       -14.64807     0.0009122049        121.9706                0               0                0               0
1.31579                 0.990942       -14.77548      0.000970545        118.6745                0               0                0               0
1.32237                0.9906315       -14.90374      0.001029393        115.2515                0               0                0               0
1.32895                0.9903171        -15.0329      0.001088514        111.7272                0               0                0               0
1.33553                0.9899997       -15.16305       0.00114769        108.1233                0               0                0               0
1.34211                0.9896798       -15.29425      0.001206727        104.4589                0               0                0               0
1.34868                0.9893578       -15.42659      0.001265447        100.7505                0               0                0               0
1.35526                0.9890343       -15.56018      0.001323696        97.01245                0               0                0               0
1.36184                0.9887091       -15.69511      0.001381337        93.25766                0               0                0               0
1.36842                0.9883819       -15.83149      0.001438257        89.49753                0               0                0               0
1.375                  0.9880524       -15.96942      0.001494366         85.7423                0               0                0               0
1.38158                0.9877199       -16.10901      0.001549599        82.00125                0               0                0               0
1.38816                0.9873835       -16.25036      0.001603916        78.28279                0               0                0               0
1.39474                0.9870421       -16.39355      0.001657308        74.59458                0               0                0               0
1.40132                0.9866941       -16.53868      0.001709794        70.94357                0               0                0               0
1.40789                0.9863383       -16.68583      0.001761429        67.33608                0               0                0               0
1.41447                0.9859729       -16.83505        0.0018123        63.77776                0               0                0               0
1.42105                0.9855961       -16.98641      0.001862532         60.2736                0               0                0               0
1.42763                 0.985206       -17.13994      0.001912285        56.82791                0               0                0               0
1.43421                0.9848008       -17.29566      0.001961761        53.44424                0               0                0               0
1.44079                0.9843786       -17.45359      0.002011199        50.12534                0               0                0               0
1.44737                0.9839376       -17.61373       0.00206088        46.87307                0               0                0               0
1.45395                 0.983476       -17.77607      0.002111122        43.68834                0               0                0               0
1.46053                0.9829921       -17.94056      0.002162279        40.57098                0               0                0               0
1.46711                0.9824846       -18.10719      0.002214741        37.51972                0               0                0               0
1.47368                0.9819524        -18.2759      0.002268928        34.53211                0               0                0               0
1.48026                0.9813941       -18.44664      0.002325284        31.60449                0               0                0               0
1.48684                0.9808091       -18.61935      0.002384275        28.73201                0               0                0               0
1.49342                0.9801967       -18.79398      0.002446378        25.90863                0               0                0               0
1.5                    0.9795567       -18.97047      0.002512074        23.12726                0               0                0               0
1.50658                0.9788891       -19.14875      0.002581841        20.37988                0               0                0               0
1.51316                0.9781938       -19.32879      0.002656146        17.65769                0               0                0               0
1.51974                0.9774715       -19.51054       0.00273543        14.95138                0               0                0               0
1.52632                0.9767227       -19.69396      0.002820111        12.25136                0               0                0               0
1.53289                 0.975948       -19.87905      0.002910565        9.547998                0               0                0               0
1.53947                0.9751485        -20.0658      0.003007128        6.831931                0               0                0               0
1.54605                0.9743252       -20.25421      0.003110087        4.094262                0               0                0               0
1.55263                0.9734791       -20.44432      0.003219679        1.326795                0               0                0               0
1.55921                0.9726112       -20.63618      0.003336088       -1.477782                0               0                0               0
1.56579                0.9717226       -20.82984      0.003459443       -4.325787                0               0                0               0
1.57237                0.9708141        -21.0254      0.003589823       -7.222453                0               0                0               0
1.57895                0.9698865       -21.22295      0.003727257        -10.1719                0               0                0               0
1.58553                0.9689405       -21.42261      0.003871724       -13.17716                0               0                0               0
1.59211                0.9679761       -21.62451      0.004023165       -16.24019                0               0                0               0
1.59868                0.9669938       -21.82879      0.004181478       -19.36199                0               0                0               0
1.60526                0.9659932       -22.03561       0.00434653       -22.54266                0               0                0               0
1.61184                0.9649737       -22.24513      0.004518157       -25.78153                0               0                0               0
1.61842                0.9639345       -22.45751      0.004696172       -29.07726                0               0                0               0
1.625                  0.9628743       -22.67293      0.004880367       -32.42793                0               0                0               0
1.63158                0.9617915       -22.89155      0.005070522       -35.83118                0               0                0               0
1.63816                0.9606842       -23.11353      0.005266404       -39.28428                0               0                0               0
1.64474                0.9595501       -23.33903      0.005467776       -42.78423                0               0                0               0
1.65132                0.9583866        -23.5682      0.005674398       -46.32782                0               0                0               0
1.65789                 0.957191       -23.80117      0.005886032       -49.91174                0               0                0               0
1.66447                  0.95596       -24.03805      0.006102445       -53.53257                0               0                0               0
1.67105                0.9546905       -24.27897      0.006323418       -57.18688                0               0                0               0
1.67763                0.9533789       -24.52398      0.006548741       -60.87129                0               0                0               0
1.68421                0.9520219       -24.77317      0.006778221       -64.58243                0               0                0               0
1.69079                0.9506156       -25.02656      0.007011687       -68.31703                0               0                0               0
1.69737                0.9491569       -25.28421      0.007248989       -72.07194                0               0                0               0
1.70395                0.9476421       -25.54609      0.007490004        -75.8441                0               0                0               0
1.71053                0.9460678       -25.81221      0.007734637       -79.63063                0               0                0               0
1.71711                0.9444309       -26.08254      0.007982829       -83.42879                0               0                0               0
1.72368                0.9427285       -26.35704      0.008234549         -87.236                0               0                0               0
1.73026                0.9409579       -26.63564      0.008489808       -91.04988                0               0                0               0
1.73684                0.9391167       -26.91829      0.008748654       -94.86821                0               0                0               0
1.74342                0.9372027       -27.20493      0.009011179         -98.689                0               0                0               0
1.75                   0.9352142       -27.49547      0.009277513       -102.5104                0               0                0               0
1.75658                0.9331497       -27.78984      0.009547834        -106.331                0               0                0               0
1.76316                0.9310079         -28.088      0.009822363       -110.1492                0               0                0               0
1.76974                0.9287882       -28.38987       0.01010137       -113.9639                0               0                0               0
1.77632                0.9264899       -28.69542       0.01038516       -117.7743                0               0                0               0
1.78289                0.9241126       -29.00462        0.0106741       -121.5797                0               0                0               0
1.78947                0.9216562       -29.31747        0.0109686       -125.3796                0               0                0               0
1.79605                0.9191207       -29.63397       0.01126908       -129.1738                0               0                0               0
1.80263                 0.916506       -29.95416       0.01157605       -132.9623                0               0                0               0
1.80921                0.9138123       -30.27811       0.01189001       -136.7455                0               0                0               0
1.81579                0.9110395       -30.60591       0.01221154       -140.5238                0               0                0               0
1.82237                0.9081874       -30.93768        0.0125412        -144.298                0               0                0               0
1.82895                0.9052559       -31.27356       0.01287962       -148.0689                0               0                0               0
1.83553                0.9022441       -31.61373       0.01322742       -151.8377                0               0                0               0
1.84211                0.8991511       -31.95838       0.01358524       -155.6058                0               0                0               0
1.84868                0.8959755       -32.30773       0.01395373       -159.3746                0               0                0               0
1.85526                0.8927155       -32.66203       0.01433355       -163.1458                0               0                0               0
1.86184                0.8893688       -33.02153       0.01472533        -166.921                0               0                0               0
1.86842                0.8859322       -33.38651       0.01512972       -170.7023                0               0                0               0
1.875                  0.8824023       -33.75723       0.01554731       -174.4914                0               0                0               0
1.88158                 0.878775       -34.13399       0.01597869       -178.2904                0               0                0               0
1.88816                0.8750454       -34.51706        0.0164244        177.8987                0               0                0               0
1.89474                0.8712081       -34.90672       0.01688497        174.0741                0               0                0               0
1.90132                0.8672571       -35.30323       0.01736084        170.2336                0               0                0               0
1.90789                0.8631858       -35.70682       0.01785243        166.3755                0               0                0               0
1.91447                0.8589871       -36.11771       0.01836008        162.4978                0               0                0               0
1.92105                0.8546534        -36.5361       0.01888409         158.599                0               0                0               0
1.92763                0.8501766       -36.96212       0.01942467        154.6774                0               0                0               0
1.93421                0.8455485       -37.39591       0.01998198        150.7315                0               0                0               0
1.94079                0.8407603       -37.83751        0.0205561        146.7601                0               0                0               0
1.94737                0.8358033       -38.28697       0.02114704        142.7618                0               0                0               0
1.95395                0.8306687       -38.74426       0.02175472        138.7358                0               0                0               0
1.96053                0.8253476       -39.20929       0.02237901        134.6812                0               0                0               0
1.96711                0.8198312       -39.68195       0.02301968        130.5972                0               0                0               0
1.97368                0.8141111       -40.16203       0.02367644        126.4834                0               0                0               0
1.98026                0.8081791       -40.64932       0.02434891        122.3392                0               0                0               0
1.98684                0.8020273       -41.14349       0.02503666        118.1645                0               0                0               0
1.99342                0.7956485       -41.64421       0.02573917        113.9592                0               0                0               0
2                      0.7890359       -42.15108       0.02645585        109.7232                0               0                0               0
2.00658                0.7821833       -42.66364       0.02718606        105.4568                0               0                0               0
2.01316                0.7750854       -43.18138       0.02792907          101.16                0               0                0               0
2.01974                0.7677376       -43.70376       0.02868411         96.8334                0               0                0               0
2.02632                0.7601357       -44.23018       0.02945034        92.47729                0               0                0               0
2.03289                0.7522768       -44.76002       0.03022686        88.09224                0               0                0               0
2.03947                0.7441588       -45.29258       0.03101274        83.67883                0               0                0               0
2.04605                0.7357799       -45.82717       0.03180698        79.23771                0               0                0               0
2.05263                0.7271398       -46.36304       0.03260852        74.76959                0               0                0               0
2.05921                0.7182385       -46.89942        0.0334163        70.27522                0               0                0               0
2.06579                0.7090771        -47.4355       0.03422919        65.75541                0               0                0               0
2.07237                0.6996572       -47.97046       0.03504602        61.21096                0               0                0               0
2.07895                0.6899814       -48.50345       0.03586561        56.64273                0               0                0               0
2.08553                0.6800525       -49.03357       0.03668674         52.0516                0               0                0               0
2.09211                0.6698743       -49.55993       0.03750815        47.43844                0               0                0               0
2.09868                0.6594507       -50.08159       0.03832859        42.80414                0               0                0               0
2.10526                0.6487866       -50.59759       0.03914677        38.14963                0               0                0               0
2.11184                0.6378868       -51.10692       0.03996138        33.47578                0               0                0               0
2.11842                0.6267566       -51.60854       0.04077113        28.78352                0               0                0               0
2.125                  0.6154017       -52.10136       0.04157468        24.07374                0               0                0               0
2.13158                0.6038278       -52.58423       0.04237072        19.34734                0               0                0               0
2.13816                0.5920408       -53.05593       0.04315793        14.60522                0               0                0               0
2.14474                0.5800468       -53.51516       0.04393499        9.848254                0               0                0               0
2.15132                0.5678519       -53.96052       0.04470057         5.07733                0               0                0               0
2.15789                0.5554625       -54.39049       0.04545339        0.293309                0               0                0               0
2.16447                0.5428847       -54.80339       0.04619215        -4.50295                0               0                0               0
2.17105                 0.530125        -55.1974       0.04691558       -9.310604                0               0                0               0
2.17763                  0.51719       -55.57047       0.04762242       -14.12881                0               0                0               0
2.18421                0.5040861       -55.92033       0.04831144       -18.95676                0               0                0               0
2.19079                0.4908205        -56.2444       0.04898143       -23.79362                0               0                0               0
2.19737                0.4774004       -56.53978       0.04963123        -28.6386                0               0                0               0
2.20395                0.4638335       -56.80317        0.0502597       -33.49089                0               0                0               0
2.21053                0.4501282       -57.03081       0.05086572       -38.34973                0               0                0               0
2.21711                0.4362935       -57.21839       0.05144822       -43.21433                0               0                0               0
2.22368                0.4223396       -57.36095       0.05200618       -48.08393                0               0                0               0
2.23026                0.4082778       -57.45278       0.05253861       -52.95777                0               0                0               0
2.23684                 0.394121       -57.48728       0.05304458        -57.8351                0               0                0               0
2.24342                0.3798842       -57.45679       0.05352319       -62.71518                0               0                0               0
2.25                   0.3655842       -57.35244       0.05397362       -67.59727                0               0                0               0
2.25658                0.3512411       -57.16389       0.05439507       -72.48064                0               0                0               0
2.26316                0.3368778       -56.87908       0.05478682       -77.36456                0               0                0               0
2.26974                0.3225219       -56.48394        0.0551482       -82.24832                0               0                0               0
2.27632                0.3082055       -55.96204        0.0554786       -87.13118                0               0                0               0
2.28289                0.2939665       -55.29414       0.05577747       -92.01244                0               0                0               0
2.28947                0.2798502       -54.45785       0.05604432       -96.89137                0               0                0               0