! TOUCHSTONE file generated by CST MICROWAVE STUDIO
! Date and time: Tue Mar 11 13:58:06 2025
! Project name: transverse.cst
! Parameters = {Fracture=5; B=12.5; D=160; F=5; Feed=2.85625; L=100; M=20; R=0.384908; S=2; Theta=270; length=57.125; wave=114.25}
! Header version: 2024
! Port assignment regex: !\s*Touchstone port\s*([0-9]+)\s*=\s*(CST MWS port|CST DES external port|CST DES block port)\s*(.+)\s* \(\"(.*)\"\)(\s*mode\s*([0-9]+))?.*
! Touchstone port assignment:
! Touchstone port 1 = CST MWS port 1 ("")
! Touchstone port 2 = CST MWS port 2 ("")
# GHz S MA R 50
1                      0.9978102       -9.764295     0.0003500143       -149.9137                0               0                0               0
1.0066                  0.997709       -9.853146     0.0003601405       -153.8893                0               0                0               0
1.0132                 0.9976013       -9.942305     0.0003696125        -157.831                0               0                0               0
1.0198                 0.9974881       -10.03174     0.0003784038       -161.7284                0               0                0               0
1.0264                 0.9973701       -10.12142     0.0003864965       -165.5711                0               0                0               0
1.033                  0.9972483       -10.21135     0.0003938816       -169.3489                0               0                0               0
1.0396                 0.9971239       -10.30151     0.0004005607       -173.0514                0               0                0               0
1.0462                 0.9969978       -10.39191     0.0004065468       -176.6684                0               0                0               0
1.05281                0.9968709       -10.48258     0.0004118653        179.8106                0               0                0               0
1.05941                0.9967446       -10.57354     0.0004165562         176.396                0               0                0               0
1.06601                0.9966196       -10.66483     0.0004206739        173.0981                0               0                0               0
1.07261                0.9964966       -10.75651     0.0004242899         169.927                0               0                0               0
1.07921                0.9963765       -10.84863     0.0004274931        166.8922                0               0                0               0
1.08581                  0.99626       -10.94125     0.0004303912        164.0024                0               0                0               0
1.09241                 0.996147       -11.03446     0.0004331106        161.2651                0               0                0               0
1.09901                0.9960381       -11.12831      0.000435798        158.6857                0               0                0               0
1.10561                0.9959333       -11.22289     0.0004386181        156.2675                0               0                0               0
1.11221                0.9958323       -11.31828     0.0004417536        154.0105                0               0                0               0
1.11881                0.9957347       -11.41455     0.0004454017        151.9109                0               0                0               0
1.12541                  0.99564       -11.51178     0.0004497711        149.9605                0               0                0               0
1.13201                0.9955476       -11.61003     0.0004550763        148.1463                0               0                0               0
1.13861                0.9954563       -11.70936     0.0004615315        146.4504                0               0                0               0
1.14521                0.9953655       -11.80983     0.0004693438          144.85                0               0                0               0
1.15182                0.9952737       -11.91148     0.0004787047        143.3183                0               0                0               0
1.15842                0.9951798       -12.01434     0.0004897832        141.8258                0               0                0               0
1.16502                0.9950826       -12.11845     0.0005027196        140.3413                0               0                0               0
1.17162                0.9949809       -12.22379     0.0005176195        138.8338                0               0                0               0
1.17822                0.9948734       -12.33039     0.0005345515        137.2742                0               0                0               0
1.18482                0.9947586       -12.43822     0.0005535462        135.6365                0               0                0               0
1.19142                0.9946357       -12.54728     0.0005745976         133.899                0               0                0               0
1.19802                0.9945037       -12.65752     0.0005976653        132.0448                0               0                0               0
1.20462                0.9943618       -12.76892     0.0006226791         130.062                0               0                0               0
1.21122                0.9942089       -12.88142     0.0006495434        127.9433                0               0                0               0
1.21782                0.9940448       -12.99498     0.0006781419         125.686                0               0                0               0
1.22442                 0.993869       -13.10955     0.0007083424        123.2907                0               0                0               0
1.23102                0.9936815       -13.22508     0.0007400009        120.7613                0               0                0               0
1.23762                0.9934823       -13.34151     0.0007729648        118.1038                0               0                0               0
1.24422                0.9932717        -13.4588     0.0008070767        115.3258                0               0                0               0
1.25083                0.9930501        -13.5769     0.0008421759        112.4362                0               0                0               0
1.25743                 0.992818       -13.69577     0.0008781015        109.4445                0               0                0               0
1.26403                0.9925763        -13.8154     0.0009146937        106.3608                0               0                0               0
1.27063                0.9923259       -13.93575     0.0009517955         103.195                0               0                0               0
1.27723                0.9920677       -14.05682     0.0009892532        99.95714                0               0                0               0
1.28383                0.9918027       -14.17863      0.001026919        96.65708                0               0                0               0
1.29043                0.9915321       -14.30117       0.00106465        93.30434                0               0                0               0
1.29703                0.9912569       -14.42449      0.001102311        89.90818                0               0                0               0
1.30363                0.9909782       -14.54862      0.001139777        86.47749                0               0                0               0
1.31023                0.9906968       -14.67362       0.00117693        83.02086                0               0                0               0
1.31683                0.9904136       -14.79956      0.001213664        79.54652                0               0                0               0
1.32343                0.9901292        -14.9265      0.001249884        76.06239                0               0                0               0
1.33003                0.9898443       -15.05454      0.001285509         72.5761                0               0                0               0
1.33663                 0.989559       -15.18377      0.001320472        69.09496                0               0                0               0
1.34323                0.9892734       -15.31428      0.001354723        65.62603                0               0                0               0
1.34984                0.9889876       -15.44618       0.00138823        62.17608                0               0                0               0
1.35644                 0.988701       -15.57956      0.001420978        58.75162                0               0                0               0
1.36304                0.9884133       -15.71453      0.001452976        55.35886                0               0                0               0
1.36964                0.9881234       -15.85118      0.001484253        52.00373                0               0                0               0
1.37624                0.9878306        -15.9896      0.001514864         48.6918                0               0                0               0
1.38284                0.9875334       -16.12989      0.001544888        45.42829                0               0                0               0
1.38944                0.9872306       -16.27211      0.001574432        42.21796                0               0                0               0
1.39604                0.9869208       -16.41634      0.001603632        39.06509                0               0                0               0
1.40264                0.9866022       -16.56262      0.001632652        35.97334                0               0                0               0
1.40924                0.9862731       -16.71101      0.001661686        32.94571                0               0                0               0
1.41584                 0.985932       -16.86153      0.001690957        29.98439                0               0                0               0
1.42244                0.9855771        -17.0142      0.001720719         27.0907                0               0                0               0
1.42904                0.9852066       -17.16902      0.001751253        24.26493                0               0                0               0
1.43564                 0.984819       -17.32599      0.001782866        21.50624                0               0                0               0
1.44224                0.9844129       -17.48509      0.001815888        18.81261                0               0                0               0
1.44884                0.9839871        -17.6463      0.001850669        16.18076                0               0                0               0
1.45545                0.9835403       -17.80958      0.001887574         13.6061                0               0                0               0
1.46205                0.9830714       -17.97489      0.001926975        11.08279                0               0                0               0
1.46865                  0.98258       -18.14219      0.001969253         8.60377                0               0                0               0
1.47525                0.9820654       -18.31143      0.002014778        6.160896                0               0                0               0
1.48185                0.9815272       -18.48259      0.002063916        3.745131                0               0                0               0
1.48845                0.9809656        -18.6556      0.002117013        1.346752                0               0                0               0
1.49505                0.9803804       -18.83045      0.002174392       -1.044371                0               0                0               0
1.50165                0.9797724       -19.00711      0.002236346       -3.438492                0               0                0               0
1.50825                0.9791417       -19.18556      0.002303136       -5.845695                0               0                0               0
1.51485                0.9784892        -19.3658      0.002374983       -8.275618                0               0                0               0
1.52145                0.9778154       -19.54784      0.002452069       -10.73719                0               0                0               0
1.52805                0.9771211       -19.73171      0.002534534       -13.23843                0               0                0               0
1.53465                0.9764074       -19.91746      0.002622478       -15.78629                0               0                0               0
1.54125                0.9756748       -20.10514      0.002715961       -18.38657                0               0                0               0
1.54785                0.9749242       -20.29482      0.002815005       -21.04382                0               0                0               0
1.55446                 0.974156        -20.4866      0.002919596       -23.76143                0               0                0               0
1.56106                0.9733709       -20.68059      0.003029692       -26.54159                0               0                0               0
1.56766                0.9725691       -20.87689      0.003145224       -29.38543                0               0                0               0
1.57426                0.9717504       -21.07565      0.003266097       -32.29311                0               0                0               0
1.58086                0.9709149         -21.277        0.0033922        -35.2639                0               0                0               0
1.58746                0.9700617        -21.4811      0.003523406       -38.29637                0               0                0               0
1.59406                0.9691902       -21.68809       0.00365958       -41.38846                0               0                0               0
1.60066                0.9682991       -21.89814      0.003800579       -44.53763                0               0                0               0
1.60726                 0.967387       -22.11141      0.003946255       -47.74094                0               0                0               0
1.61386                 0.966452       -22.32804      0.004096465       -50.99518                0               0                0               0
1.62046                0.9654919       -22.54819      0.004251067       -54.29694                0               0                0               0
1.62706                0.9645044       -22.77199      0.004409927       -57.64269                0               0                0               0
1.63366                0.9634869       -22.99957       0.00457292       -61.02883                0               0                0               0
1.64026                0.9624362       -23.23105      0.004739937        -64.4518                0               0                0               0
1.64686                0.9613494       -23.46654      0.004910881       -67.90805                0               0                0               0
1.65347                0.9602233       -23.70611      0.005085675       -71.39413                0               0                0               0
1.66007                0.9590545       -23.94982      0.005264262       -74.90672                0               0                0               0
1.66667                0.9578396       -24.19774      0.005446609       -78.44265                0               0                0               0
1.67327                0.9565753        -24.4499      0.005632706       -81.99889                0               0                0               0
1.67987                 0.955258        -24.7063      0.005822571       -85.57262                0               0                0               0
1.68647                0.9538848       -24.96695       0.00601625       -89.16123                0               0                0               0
1.69307                0.9524525       -25.23183      0.006213822       -92.76231                0               0                0               0
1.69967                 0.950958        -25.5009      0.006415392       -96.37368                0               0                0               0
1.70627                0.9493989       -25.77414      0.006621104       -99.99339                0               0                0               0
1.71287                0.9477726       -26.05149      0.006831131       -103.6197                0               0                0               0
1.71947                 0.946077       -26.33289      0.007045684       -107.2513                0               0                0               0
1.72607                0.9443101        -26.6183      0.007265005       -110.8868                0               0                0               0
1.73267                0.9424704       -26.90766      0.007489372       -114.5254                0               0                0               0
1.73927                0.9405565       -27.20091      0.007719097       -118.1663                0               0                0               0
1.74587                0.9385674       -27.49802      0.007954524       -121.8092                0               0                0               0
1.75248                0.9365021       -27.79896      0.008196026       -125.4538                0               0                0               0
1.75908                0.9343599       -28.10369      0.008444009       -129.1002                0               0                0               0
1.76568                0.9321405       -28.41224      0.008698904       -132.7487                0               0                0               0
1.77228                0.9298432        -28.7246      0.008961164       -136.3999                0               0                0               0
1.77888                0.9274681       -29.04083      0.009231268       -140.0545                0               0                0               0
1.78548                0.9250145       -29.36098      0.009509703       -143.7135                0               0                0               0
1.79208                 0.922482       -29.68513      0.009796978        -147.378                0               0                0               0
1.79868                0.9198701        -30.0134        0.0100936       -151.0493                0               0                0               0
1.80528                 0.917178       -30.34591        0.0104001       -154.7289                0               0                0               0
1.81188                0.9144048       -30.68282       0.01071698       -158.4183                0               0                0               0
1.81848                 0.911549       -31.02429       0.01104475       -162.1192                0               0                0               0
1.82508                 0.908609       -31.37052       0.01138391       -165.8332                0               0                0               0
1.83168                0.9055825       -31.72173       0.01173495       -169.5623                0               0                0               0
1.83828                 0.902467       -32.07811       0.01209832        -173.308                0               0                0               0
1.84488                0.8992594       -32.43991       0.01247445       -177.0723                0               0                0               0
1.85149                0.8959559       -32.80735       0.01286375        179.1432                0               0                0               0
1.85809                0.8925523       -33.18067       0.01326659        175.3368                0               0                0               0
1.86469                 0.889044       -33.56009       0.01368329         171.507                0               0                0               0
1.87129                0.8854256       -33.94583       0.01411413        167.6522                0               0                0               0
1.87789                0.8816913       -34.33809       0.01455937        163.7712                0               0                0               0
1.88449                 0.877835       -34.73705       0.01501918        159.8625                0               0                0               0
1.89109                0.8738497       -35.14288       0.01549371        155.9252                0               0                0               0
1.89769                0.8697287       -35.55571       0.01598304        151.9583                0               0                0               0
1.90429                0.8654643       -35.97562       0.01648722         147.961                0               0                0               0
1.91089                0.8610489       -36.40269       0.01700621        143.9325                0               0                0               0
1.91749                0.8564747       -36.83694       0.01753994        139.8724                0               0                0               0
1.92409                0.8517338       -37.27833       0.01808827        135.7803                0               0                0               0
1.93069                0.8468183       -37.72682       0.01865102        131.6559                0               0                0               0
1.93729                0.8417202        -38.1823       0.01922795        127.4992                0               0                0               0
1.94389                0.8364319        -38.6446       0.01981874        123.3101                0               0                0               0
1.9505                  0.830946       -39.11353       0.02042306        119.0888                0               0                0               0
1.9571                 0.8252553       -39.58882       0.02104048        114.8356                0               0                0               0
1.9637                 0.8193531       -40.07019       0.02167056        110.5507                0               0                0               0
1.9703                 0.8132333        -40.5573       0.02231279        106.2346                0               0                0               0
1.9769                 0.8068901       -41.04975       0.02296661        101.8879                0               0                0               0
1.9835                 0.8003182       -41.54712       0.02363142         97.5111                0               0                0               0
1.9901                 0.7935135       -42.04895       0.02430657        93.10484                0               0                0               0
1.9967                  0.786472       -42.55475       0.02499137        88.66985                0               0                0               0
2.0033                 0.7791905       -43.06396        0.0256851        84.20687                0               0                0               0
2.0099                 0.7716667       -43.57603       0.02638697        79.71669                0               0                0               0
2.0165                 0.7638989       -44.09036        0.0270962        75.20014                0               0                0               0
2.0231                 0.7558861       -44.60634       0.02781194        70.65805                0               0                0               0
2.0297                  0.747628       -45.12333       0.02853331        66.09131                0               0                0               0
2.0363                 0.7391249       -45.64066       0.02925941        61.50078                0               0                0               0
2.0429                 0.7303778       -46.15765       0.02998934        56.88737                0               0                0               0
2.0495                 0.7213882        -46.6736       0.03072212        52.25198                0               0                0               0
2.05611                0.7121583        -47.1878       0.03145678         47.5955                0               0                0               0
2.06271                0.7026905       -47.69952       0.03219233        42.91885                0               0                0               0
2.06931                0.6929878         -48.208       0.03292776        38.22292                0               0                0               0
2.07591                0.6830537       -48.71247       0.03366204        33.50862                0               0                0               0
2.08251                0.6728917       -49.21213       0.03439415        28.77684                0               0                0               0
2.08911                0.6625057       -49.70617       0.03512302        24.02845                0               0                0               0
2.09571                   0.6519       -50.19371        0.0358476        19.26433                0               0                0               0
2.10231                0.6410788       -50.67386       0.03656684        14.48535                0               0                0               0
2.10891                0.6300463       -51.14568       0.03727969        9.692358                0               0                0               0
2.11551                0.6188073       -51.60815       0.03798507         4.88619                0               0                0               0
2.12211                0.6073663        -52.0602       0.03868194      0.06767987                0               0                0               0
2.12871                0.5957277       -52.50064       0.03936923       -4.762357                0               0                0               0
2.13531                0.5838965       -52.92823       0.04004593       -9.603119                0               0                0               0
2.14191                0.5718773       -53.34155         0.040711       -14.45381                0               0                0               0
2.14851                 0.559675       -53.73907       0.04136342       -19.31366                0               0                0               0
2.15512                0.5472949       -54.11907       0.04200221       -24.18188                0               0                0               0
2.16172                0.5347421       -54.47966       0.04262637       -29.05774                0               0                0               0
2.16832                0.5220222        -54.8187       0.04323496       -33.94047                0               0                0               0
2.17492                0.5091413       -55.13377       0.04382703       -38.82936                0               0                0               0
2.18152                0.4961061       -55.42216        0.0444017       -43.72366                0               0                0               0
2.18812                0.4829236        -55.6808       0.04495807       -48.62267                0               0                0               0
2.19472                0.4696021       -55.90619       0.04549531       -53.52569                0               0                0               0
2.20132                0.4561506        -56.0944        0.0460126         -58.432                0               0                0               0
2.20792                0.4425792       -56.24089       0.04650917       -63.34094                0               0                0               0
2.21452                0.4288999       -56.34054       0.04698427        -68.2518                0               0                0               0
2.22112                0.4151259       -56.38747       0.04743723       -73.16393                0               0                0               0
2.22772                0.4012727       -56.37502       0.04786736       -78.07664                0               0                0               0
2.23432                0.3873579       -56.29549       0.04827406       -82.98927                0               0                0               0
2.24092                 0.373402       -56.14017       0.04865676       -87.90117                0               0                0               0
2.24752                0.3594285       -55.89902       0.04901495       -92.81168                0               0                0               0
2.25413                0.3454645        -55.5606       0.04934814       -97.72015                0               0                0               0
2.26073                0.3315415        -55.1118       0.04965593       -102.6259                0               0                0               0
2.26733                0.3176956       -54.53766       0.04993793       -107.5284                0               0                0               0
2.27393                0.3039688       -53.82113       0.05019382       -112.4269                0               0                0               0
2.28053                0.2904097       -52.94291       0.05042335       -117.3207                0               0                0               0
2.28713                0.2770745        -51.8812       0.05062629       -122.2094                0               0                0               0
2.29373                0.2640283       -50.61176        0.0508025       -127.0921                0               0                0               0