! TOUCHSTONE file generated by CST MICROWAVE STUDIO
! Date and time: Tue Mar 11 13:56:36 2025
! Project name: transverse.cst
! Parameters = {Fracture=1; B=10; D=160; F=15; Feed=2.85625; L=100; M=10; R=0.384908; S=2; Theta=90; length=57.125; wave=114.25}
! Header version: 2024
! Port assignment regex: !\s*Touchstone port\s*([0-9]+)\s*=\s*(CST MWS port|CST DES external port|CST DES block port)\s*(.+)\s* \(\"(.*)\"\)(\s*mode\s*([0-9]+))?.*
! Touchstone port assignment:
! Touchstone port 1 = CST MWS port 1 ("")
! Touchstone port 2 = CST MWS port 2 ("")
# GHz S MA R 50
1                       0.997695       -10.00499     0.0007468598       -132.9539                0               0                0               0
1.00758                0.9975819        -10.1068     0.0007640229       -139.9207                0               0                0               0
1.01515                0.9974677       -10.20913     0.0007795117       -146.7809                0               0                0               0
1.02273                0.9973527         -10.312     0.0007931758       -153.5394                0               0                0               0
1.0303                 0.9972378       -10.41545     0.0008048706       -160.2003                0               0                0               0
1.03788                0.9971231       -10.51951     0.0008144574       -166.7662                0               0                0               0
1.04545                0.9970093       -10.62425     0.0008218036       -173.2389                0               0                0               0
1.05303                0.9968966        -10.7297     0.0008267835       -179.6191                0               0                0               0
1.06061                0.9967852       -10.83592     0.0008292783        174.0939                0               0                0               0
1.06818                0.9966752       -10.94298     0.0008291774        167.9018                0               0                0               0
1.07576                0.9965664       -11.05093     0.0008263785        161.8078                0               0                0               0
1.08333                0.9964591       -11.15983     0.0008207903        155.8166                0               0                0               0
1.09091                0.9963525       -11.26975     0.0008123315        149.9347                0               0                0               0
1.09848                0.9962465       -11.38073     0.0008009345        144.1711                0               0                0               0
1.10606                0.9961403       -11.49284     0.0007865466        138.5373                0               0                0               0
1.11364                0.9960336       -11.60614     0.0007691334        133.0482                0               0                0               0
1.12121                0.9959255       -11.72066     0.0007486821        127.7233                0               0                0               0
1.12879                0.9958152       -11.83645     0.0007252068        122.5877                0               0                0               0
1.13636                0.9957017       -11.95354     0.0006987564        117.6739                0               0                0               0
1.14394                0.9955843       -12.07198      0.000669424        113.0246                0               0                0               0
1.15152                0.9954619       -12.19178      0.000637363        108.6962                0               0                0               0
1.15909                0.9953336       -12.31295     0.0006028083        104.7637                0               0                0               0
1.16667                0.9951984       -12.43552     0.0005661108        101.3274                0               0                0               0
1.17424                0.9950553       -12.55948     0.0005277891        98.52301                0               0                0               0
1.18182                0.9949034       -12.68483     0.0004886085        96.53224                0               0                0               0
1.18939                0.9947421       -12.81156     0.0004497009        95.59406                0               0                0               0
1.19697                0.9945703       -12.93966     0.0004127364        96.00473                0               0                0               0
1.20455                0.9943876       -13.06911     0.0003801288        98.08102                0               0                0               0
1.21212                0.9941933       -13.19988     0.0003551728        102.0374                0               0                0               0
1.2197                  0.993987       -13.33195     0.0003418301        107.7423                0               0                0               0
1.22727                0.9937684        -13.4653     0.0003438083        114.4778                0               0                0               0
1.23485                0.9935373        -13.5999       0.00036314        121.0535                0               0                0               0
1.24242                0.9932936       -13.73572     0.0003994196        126.3713                0               0                0               0
1.25                   0.9930374       -13.87273     0.0004504552        129.8933                0               0                0               0
1.25758                0.9927689       -14.01092     0.0005135251        131.6177                0               0                0               0
1.26515                0.9924884       -14.15027     0.0005862048        131.8088                0               0                0               0
1.27273                0.9921962       -14.29078     0.0006666134        130.7855                0               0                0               0
1.2803                  0.991893       -14.43242     0.0007533627        128.8297                0               0                0               0
1.28788                0.9915791       -14.57521     0.0008454323        126.1638                0               0                0               0
1.29545                0.9912554       -14.71916     0.0009420557        122.9561                0               0                0               0
1.30303                0.9909223       -14.86429      0.001042637        119.3317                0               0                0               0
1.31061                0.9905807       -15.01061      0.001146692        115.3844                0               0                0               0
1.31818                 0.990231       -15.15818      0.001253814        111.1842                0               0                0               0
1.32576                0.9898743       -15.30703      0.001363644        106.7847                0               0                0               0
1.33333                0.9895107       -15.45722      0.001475859        102.2271                0               0                0               0
1.34091                0.9891411        -15.6088      0.001590157        97.54329                0               0                0               0
1.34848                0.9887657       -15.76186      0.001706249        92.75874                0               0                0               0
1.35606                0.9883849       -15.91647      0.001823858        87.89374                0               0                0               0
1.36364                 0.987999       -16.07271      0.001942712        82.96476                0               0                0               0
1.37121                0.9876079       -16.23067      0.002062545        77.98532                0               0                0               0
1.37879                0.9872119       -16.39046      0.002183091        72.96667                0               0                0               0
1.38636                0.9868104       -16.55216      0.002304089        67.91831                0               0                0               0
1.39394                0.9864032       -16.71587      0.002425278        62.84833                0               0                0               0
1.40152                0.9859896        -16.8817        0.0025464        57.76371                0               0                0               0
1.40909                0.9855693       -17.04976        0.0026672         52.6706                0               0                0               0
1.41667                0.9851412       -17.22013      0.002787425         47.5744                0               0                0               0
1.42424                0.9847042       -17.39292      0.002906829        42.48002                0               0                0               0
1.43182                0.9842572       -17.56822      0.003025168        37.39191                0               0                0               0
1.43939                0.9837991       -17.74613      0.003142208        32.31416                0               0                0               0
1.44697                0.9833283       -17.92672      0.003257721         27.2506                0               0                0               0
1.45455                0.9828438       -18.11007       0.00337149        22.20487                0               0                0               0
1.46212                0.9823435       -18.29627       0.00348331        17.18044                0               0                0               0
1.4697                 0.9818263       -18.48538      0.003592989        12.18066                0               0                0               0
1.47727                0.9812902       -18.67746      0.003700352        7.208791                0               0                0               0
1.48485                0.9807338       -18.87255      0.003805241        2.268066                0               0                0               0
1.49242                0.9801553       -19.07072      0.003907521       -2.638333                0               0                0               0
1.5                    0.9795532       -19.27201      0.004007081       -7.507225                0               0                0               0
1.50758                0.9789259       -19.47645      0.004103833       -12.33544                0               0                0               0
1.51515                0.9782719       -19.68407      0.004197723       -17.11978                0               0                0               0
1.52273                0.9775898       -19.89491      0.004288731       -21.85706                0               0                0               0
1.5303                  0.976878         -20.109      0.004376869       -26.54407                0               0                0               0
1.53788                0.9761356       -20.32636      0.004462196       -31.17761                0               0                0               0
1.54545                 0.975361       -20.54702      0.004544812       -35.75447                0               0                0               0
1.55303                0.9745533       -20.77101      0.004624866        -40.2715                0               0                0               0
1.56061                0.9737114       -20.99837      0.004702562       -44.72562                0               0                0               0
1.56818                0.9728344       -21.22913      0.004778159       -49.11383                0               0                0               0
1.57576                0.9719213       -21.46332      0.004851978       -53.43332                0               0                0               0
1.58333                0.9709712       -21.70101      0.004924406       -57.68148                0               0                0               0
1.59091                0.9699835       -21.94225      0.004995898       -61.85599                0               0                0               0
1.59848                0.9689573       -22.18709       0.00506698       -65.95492                0               0                0               0
1.60606                0.9678918       -22.43562      0.005138251       -69.97678                0               0                0               0
1.61364                0.9667863       -22.68792      0.005210388       -73.92068                0               0                0               0
1.62121                0.9656397       -22.94408      0.005284141        -77.7864                0               0                0               0
1.62879                0.9644513        -23.2042      0.005360333       -81.57452                0               0                0               0
1.63636                  0.96322       -23.46841      0.005439858       -85.28653                0               0                0               0
1.64394                0.9619446       -23.73683      0.005523676       -88.92493                0               0                0               0
1.65152                0.9606239       -24.00959      0.005612801       -92.49328                0               0                0               0
1.65909                0.9592561       -24.28684      0.005708298       -95.99634                0               0                0               0
1.66667                0.9578398       -24.56875      0.005811265       -99.43998                0               0                0               0
1.67424                 0.956373       -24.85546      0.005922825       -102.8313                0               0                0               0
1.68182                0.9548534       -25.14716        0.0060441       -106.1783                0               0                0               0
1.68939                0.9532787       -25.44402      0.006176205       -109.4903                0               0                0               0
1.69697                0.9516461       -25.74621      0.006320225       -112.7769                0               0                0               0
1.70455                0.9499526       -26.05393      0.006477197       -116.0487                0               0                0               0
1.71212                 0.948195       -26.36736      0.006648097       -119.3164                0               0                0               0
1.7197                 0.9463696       -26.68669       0.00683382       -122.5909                0               0                0               0
1.72727                0.9444727       -27.01209      0.007035172       -125.8828                0               0                0               0
1.73485                0.9424999       -27.34376       0.00725286       -129.2021                0               0                0               0
1.74242                0.9404468       -27.68187      0.007487484       -132.5583                0               0                0               0
1.75                   0.9383087       -28.02658      0.007739534         -135.96                0               0                0               0
1.75758                0.9360804       -28.37806      0.008009389       -139.4147                0               0                0               0
1.76515                0.9337568       -28.73647      0.008297324       -142.9287                0               0                0               0
1.77273                0.9313323       -29.10194      0.008603505       -146.5074                0               0                0               0
1.7803                 0.9288011        -29.4746      0.008928004       -150.1548                0               0                0               0
1.78788                0.9261574       -29.85459      0.009270804       -153.8738                0               0                0               0
1.79545                0.9233949       -30.24199      0.009631801       -157.6665                0               0                0               0
1.80303                0.9205076       -30.63691       0.01001082       -161.5339                0               0                0               0
1.81061                0.9174888       -31.03942       0.01040762       -165.4762                0               0                0               0
1.81818                0.9143322       -31.44958        0.0108219       -169.4928                0               0                0               0
1.82576                 0.911031       -31.86745        0.0112533       -173.5827                0               0                0               0
1.83333                0.9075788       -32.29303       0.01170143       -177.7442                0               0                0               0
1.84091                0.9039688       -32.72637       0.01216585        178.0246                0               0                0               0
1.84848                0.9001941       -33.16745       0.01264607        173.7259                0               0                0               0
1.85606                0.8962483       -33.61625       0.01314159        169.3624                0               0                0               0
1.86364                0.8921245       -34.07275       0.01365188        164.9365                0               0                0               0
1.87121                0.8878161       -34.53689       0.01417637        160.4512                0               0                0               0
1.87879                0.8833164       -35.00863       0.01471449         155.909                0               0                0               0
1.88636                0.8786189       -35.48785       0.01526563        151.3129                0               0                0               0
1.89394                 0.873717       -35.97448       0.01582917        146.6656                0               0                0               0
1.90152                0.8686046       -36.46838       0.01640447        141.9698                0               0                0               0
1.90909                 0.863275       -36.96946       0.01699088         137.228                0               0                0               0
1.91667                0.8577222       -37.47753       0.01758774        132.4429                0               0                0               0
1.92424                0.8519401       -37.99245       0.01819436        127.6169                0               0                0               0
1.93182                0.8459227       -38.51402       0.01881004        122.7524                0               0                0               0
1.93939                0.8396642       -39.04204       0.01943409        117.8517                0               0                0               0
1.94697                0.8331587       -39.57627       0.02006579        112.9167                0               0                0               0
1.95455                 0.826401       -40.11647        0.0207044        107.9498                0               0                0               0
1.96212                0.8193854       -40.66237        0.0213492        102.9527                0               0                0               0
1.9697                 0.8121068       -41.21363       0.02199944        97.92725                0               0                0               0
1.97727                0.8045602       -41.76995       0.02265436        92.87531                0               0                0               0
1.98485                0.7967408       -42.33095       0.02331321        87.79849                0               0                0               0
1.99242                 0.788644       -42.89623       0.02397522        82.69835                0               0                0               0
2                      0.7802655       -43.46533       0.02463961        77.57638                0               0                0               0
2.00758                0.7716013       -44.03778       0.02530561        72.43398                0               0                0               0
2.01515                0.7626476       -44.61304       0.02597243        67.27248                0               0                0               0
2.02273                0.7534012       -45.19051       0.02663931        62.09313                0               0                0               0
2.0303                  0.743859       -45.76956       0.02730543        56.89713                0               0                0               0
2.03788                0.7340184       -46.34947       0.02797002         51.6856                0               0                0               0
2.04545                0.7238774       -46.92946       0.02863229         46.4596                0               0                0               0
2.05303                0.7134345       -47.50868       0.02929145        41.22015                0               0                0               0
2.06061                0.7026885       -48.08616       0.02994672        35.96822                0               0                0               0
2.06818                0.6916389       -48.66088        0.0305973         30.7047                0               0                0               0
2.07576                 0.680286       -49.23169       0.03124243        25.43047                0               0                0               0
2.08333                0.6686309       -49.79733       0.03188132        20.14635                0               0                0               0
2.09091                0.6566751       -50.35641       0.03251322        14.85312                0               0                0               0
2.09848                0.6444213       -50.90741       0.03313734        9.551539                0               0                0               0
2.10606                0.6318729       -51.44863       0.03375295        4.242312                0               0                0               0
2.11364                0.6190344       -51.97822        0.0343593       -1.073872                0               0                0               0
2.12121                0.6059109       -52.49411       0.03495565        -6.39636                0               0                0               0
2.12879                0.5925094       -52.99404       0.03554129       -11.72453                0               0                0               0
2.13636                0.5788373       -53.47548       0.03611549       -17.05777                0               0                0               0
2.14394                0.5649036       -53.93564       0.03667757       -22.39552                0               0                0               0
2.15152                0.5507186       -54.37142       0.03722686       -27.73721                0               0                0               0
2.15909                0.5362941       -54.77935       0.03776266        -33.0823                0               0                0               0
2.16667                0.5216434        -55.1556       0.03828436       -38.43029                0               0                0               0
2.17424                0.5067812       -55.49586        0.0387913       -43.78066                0               0                0               0
2.18182                0.4917243       -55.79532       0.03928288       -49.13293                0               0                0               0
2.18939                 0.476491       -56.04856       0.03975851       -54.48662                0               0                0               0
2.19697                0.4611021       -56.24952       0.04021762        -59.8413                0               0                0               0
2.20455                0.4455805       -56.39133       0.04065967       -65.19649                0               0                0               0
2.21212                0.4299513       -56.46622       0.04108412       -70.55177                0               0                0               0
2.2197                 0.4142427       -56.46542       0.04149048       -75.90671                0               0                0               0
2.22727                 0.398486       -56.37897       0.04187826        -81.2609                0               0                0               0
2.23485                0.3827157       -56.19552       0.04224703       -86.61391                0               0                0               0
2.24242                0.3669706       -55.90215       0.04259635       -91.96536                0               0                0               0
2.25                   0.3512938       -55.48415       0.04292582       -97.31483                0               0                0               0
2.25758                0.3357338       -54.92478       0.04323509       -102.6619                0               0                0               0
2.26515                0.3203453         -54.205       0.04352379       -108.0063                0               0                0               0
2.27273                0.3051903       -53.30328       0.04379164       -113.3475                0               0                0               0
2.2803                  0.290339       -52.19543       0.04403834       -118.6853                0               0                0               0
2.28788                0.2758713       -50.85457       0.04426364       -124.0191                0               0                0               0
2.29545                0.2618786       -49.25137       0.04446732       -129.3486                0               0                0               0
2.30303                 0.248465       -47.35466        0.0446492       -134.6735                0               0                0               0
2.31061                0.2357486       -45.13268       0.04480911       -139.9934                0               0                0               0
2.31818                0.2238625       -42.55527       0.04494692       -145.3079                0               0                0               0
2.32576                 0.212954       -39.59721       0.04506255       -150.6166                0               0                0               0
2.33333                0.2031826       -36.24294       0.04515593       -155.9191                0               0                0               0
2.34091                0.1947143       -32.49253       0.04522703       -161.2152                0               0                0               0
2.34848                0.1877134       -28.36804       0.04527587       -166.5042                0               0                0               0
2.35606                0.1823291        -23.9189       0.04530247        -171.786                0               0                0               0
2.36364                0.1786803       -19.22372       0.04530691       -177.0601                0               0                0               0
2.37121                0.1768406        -14.3867       0.04528928        177.6739                0               0                0               0
2.37879                0.1768261       -9.527878       0.04524973        172.4164                0               0                0               0
2.38636                 0.178592       -4.768939       0.04518842        167.1678                0               0                0               0
2.39394                0.1820367       -0.218608       0.04510555        161.9284                0               0                0               0
2.40152                0.1870147        4.038336       0.04500136        156.6988                0               0                0               0
2.40909                0.1933531        7.946025       0.04487611        151.4793                0               0                0               0
2.41667                0.2008674        11.47665        0.0447301        146.2704                0               0                0               0
2.42424                0.2093753        14.62568       0.04456364        141.0724                0               0                0               0
2.43182                0.2187057        17.40557        0.0443771        135.8859                0               0                0               0
2.43939                0.2287037         19.8396       0.04417088        130.7112                0               0                0               0
2.44697                0.2392332        21.95685       0.04394537        125.5489                0               0                0               0
2.45455                0.2501767        23.78855       0.04370103        120.3993                0               0                0               0
2.46212                0.2614338        25.36572       0.04343833         115.263                0               0                0               0
2.4697                 0.2729199        26.71768       0.04315776        110.1404                0               0                0               0
2.47727                0.2845638        27.87136       0.04285986         105.032                0               0                0               0
2.48485                0.2963061          28.851       0.04254518        99.93837                0               0                0               0