! TOUCHSTONE file generated by CST MICROWAVE STUDIO
! Date and time: Tue Mar 11 13:58:19 2025
! Project name: transverse.cst
! Parameters = {Fracture=1; B=12.5; D=160; F=15; Feed=2.85625; L=100; M=20; R=0.384908; S=1; Theta=270; length=57.125; wave=114.25}
! Header version: 2024
! Port assignment regex: !\s*Touchstone port\s*([0-9]+)\s*=\s*(CST MWS port|CST DES external port|CST DES block port)\s*(.+)\s* \(\"(.*)\"\)(\s*mode\s*([0-9]+))?.*
! Touchstone port assignment:
! Touchstone port 1 = CST MWS port 1 ("")
! Touchstone port 2 = CST MWS port 2 ("")
# GHz S MA R 50
1                      0.9975919       -10.11929     0.0004473286       -170.0966                0               0                0               0
1.00658                0.9974971       -10.20875     0.0004455911       -175.0985                0               0                0               0
1.01316                0.9974017       -10.29861     0.0004421669       -179.9516                0               0                0               0
1.01974                0.9973062        -10.3889     0.0004370684        175.3617                0               0                0               0
1.02632                 0.997211       -10.47965     0.0004303289        170.8631                0               0                0               0
1.03289                0.9971166        -10.5709     0.0004220062        166.5793                0               0                0               0
1.03947                0.9970232       -10.66268     0.0004121879        162.5422                0               0                0               0
1.04605                0.9969309       -10.75504     0.0004009985        158.7911                0               0                0               0
1.05263                  0.99684       -10.84802     0.0003886085        155.3729                0               0                0               0
1.05921                0.9967502       -10.94167     0.0003752455         152.344                0               0                0               0
1.06579                0.9966618       -11.03604     0.0003612091        149.7704                0               0                0               0
1.07237                0.9965741       -11.13118     0.0003468885        147.7271                0               0                0               0
1.07895                 0.996487       -11.22713     0.0003327824        146.2947                0               0                0               0
1.08553                   0.9964       -11.32394     0.0003195183        145.5515                0               0                0               0
1.09211                0.9963126       -11.42163     0.0003078634        145.5576                0               0                0               0
1.09868                 0.996224       -11.52026     0.0002987149        146.3307                0               0                0               0
1.10526                0.9961336       -11.61984      0.000293052        147.8154                0               0                0               0
1.11184                0.9960407        -11.7204     0.0002918377        149.8577                0               0                0               0
1.11842                0.9959445       -11.82195     0.0002958779        152.2048                0               0                0               0
1.125                  0.9958441       -11.92451     0.0003056819        154.5429                0               0                0               0
1.13158                0.9957389       -12.02807      0.000321386        156.5651                0               0                0               0
1.13816                 0.995628       -12.13264     0.0003427739         158.036                0               0                0               0
1.14474                0.9955107       -12.23821     0.0003693752        158.8221                0               0                0               0
1.15132                0.9953865       -12.34475     0.0004005867        158.8846                0               0                0               0
1.15789                0.9952547       -12.45226     0.0004357721        158.2524                0               0                0               0
1.16447                0.9951149        -12.5607     0.0004743231        156.9914                0               0                0               0
1.17105                0.9949668       -12.67005     0.0005156873        155.1823                0               0                0               0
1.17763                0.9948102       -12.78027     0.0005593738        152.9061                0               0                0               0
1.18421                0.9946449       -12.89135     0.0006049495        150.2375                0               0                0               0
1.19079                 0.994471       -13.00325     0.0006520301        147.2422                0               0                0               0
1.19737                0.9942888       -13.11595      0.000700271        143.9762                0               0                0               0
1.20395                0.9940983       -13.22941     0.0007493591        140.4868                0               0                0               0
1.21053                0.9939001       -13.34363     0.0007990064        136.8138                0               0                0               0
1.21711                0.9936946       -13.45859     0.0008489448        132.9906                0               0                0               0
1.22368                0.9934823       -13.57428     0.0008989224        129.0452                0               0                0               0
1.23026                 0.993264       -13.69071     0.0009487007        125.0016                0               0                0               0
1.23684                0.9930403       -13.80788     0.0009980533          120.88                0               0                0               0
1.24342                0.9928117        -13.9258      0.001046764        116.6981                0               0                0               0
1.25                   0.9925792       -14.04451      0.001094628        112.4713                0               0                0               0
1.25658                0.9923432       -14.16404      0.001141449         108.213                0               0                0               0
1.26316                0.9921044       -14.28443      0.001187044        103.9356                0               0                0               0
1.26974                0.9918632       -14.40573       0.00123124        99.64994                0               0                0               0
1.27632                0.9916201         -14.528      0.001273876         95.3663                0               0                0               0
1.28289                0.9913754        -14.6513      0.001314808        91.09417                0               0                0               0
1.28947                0.9911291        -14.7757      0.001353906        86.84257                0               0                0               0
1.29605                0.9908813       -14.90126      0.001391056        82.62015                0               0                0               0
1.30263                0.9906319       -15.02807      0.001426168        78.43537                0               0                0               0
1.30921                0.9903805       -15.15619      0.001459171         74.2965                0               0                0               0
1.31579                0.9901264       -15.28571      0.001490021        70.21178                0               0                0               0
1.32237                0.9898695       -15.41669      0.001518701        66.18942                0               0                0               0
1.32895                0.9896085       -15.54919      0.001545225        62.23765                0               0                0               0
1.33553                0.9893428       -15.68329      0.001569644        58.36476                0               0                0               0
1.34211                0.9890712       -15.81902      0.001592044        54.57904                0               0                0               0
1.34868                0.9887926       -15.95645      0.001612556        50.88874                0               0                0               0
1.35526                0.9885057       -16.09561      0.001631356        47.30202                0               0                0               0
1.36184                0.9882094       -16.23653       0.00164867        43.82676                0               0                0               0
1.36842                0.9879024       -16.37923      0.001664779        40.47044                0               0                0               0
1.375                  0.9875834       -16.52372       0.00168002        37.23984                0               0                0               0
1.38158                0.9872511       -16.67001       0.00169479        34.14078                0               0                0               0
1.38816                0.9869045       -16.81809      0.001709547        31.17772                0               0                0               0
1.39474                0.9865423       -16.96794      0.001724809        28.35336                0               0                0               0
1.40132                0.9861639       -17.11955      0.001741152        25.66815                0               0                0               0
1.40789                0.9857682       -17.27288      0.001759205        23.11985                0               0                0               0
1.41447                0.9853546       -17.42791      0.001779642        20.70309                0               0                0               0
1.42105                0.9849227       -17.58459       0.00180317        18.40899                0               0                0               0
1.42763                0.9844723       -17.74291      0.001830514        16.22504                0               0                0               0
1.43421                 0.984003       -17.90282      0.001862398        14.13507                0               0                0               0
1.44079                0.9835151        -18.0643      0.001899528        12.11959                0               0                0               0
1.44737                0.9830088       -18.22733      0.001942565        10.15637                0               0                0               0
1.45395                0.9824843       -18.39187      0.001992111        8.221273                0               0                0               0
1.46053                0.9819424       -18.55793      0.002048689        6.289317                0               0                0               0
1.46711                0.9813835       -18.72551      0.002112727         4.33579                0               0                0               0
1.47368                0.9808084       -18.89462      0.002184551        2.337352                0               0                0               0
1.48026                0.9802179       -19.06528      0.002264381       0.2730038                0               0                0               0
1.48684                0.9796128       -19.23753      0.002352331       -1.875202                0               0                0               0
1.49342                 0.978994       -19.41143       0.00244842       -4.121713                0               0                0               0
1.5                     0.978362       -19.58704      0.002552573        -6.47731                0               0                0               0
1.50658                0.9777176       -19.76444       0.00266464       -8.949197                0               0                0               0
1.51316                0.9770613       -19.94372      0.002784405       -11.54127                0               0                0               0
1.51974                0.9763934       -20.12498      0.002911596       -14.25454                0               0                0               0
1.52632                0.9757142       -20.30834      0.003045903       -17.08754                0               0                0               0
1.53289                0.9750236       -20.49392      0.003186983       -20.03688                0               0                0               0
1.53947                0.9743213       -20.68186       0.00333447       -23.09765                0               0                0               0
1.54605                0.9736068       -20.87228      0.003487986       -26.26385                0               0                0               0
1.55263                0.9728791       -21.06533      0.003647142       -29.52873                0               0                0               0
1.55921                0.9721375       -21.26114      0.003811551       -32.88508                0               0                0               0
1.56579                0.9713803       -21.45986      0.003980825       -36.32547                0               0                0               0
1.57237                 0.970606       -21.66161      0.004154585       -39.84241                0               0                0               0
1.57895                0.9698128       -21.86653      0.004332459        -43.4285                0               0                0               0
1.58553                0.9689985       -22.07473       0.00451409       -47.07652                0               0                0               0
1.59211                 0.968161       -22.28631      0.004699138       -50.77951                0               0                0               0
1.59868                0.9672976       -22.50139      0.004887278       -54.53077                0               0                0               0
1.60526                0.9664059       -22.72003       0.00507821       -58.32395                0               0                0               0
1.61184                0.9654831       -22.94231      0.005271656       -62.15299                0               0                0               0
1.61842                0.9645266       -23.16829      0.005467363       -66.01221                0               0                0               0
1.625                  0.9635335         -23.398      0.005665111       -69.89622                0               0                0               0
1.63158                0.9625012       -23.63147      0.005864709       -73.80001                0               0                0               0
1.63816                0.9614271       -23.86871      0.006066002       -77.71883                0               0                0               0
1.64474                0.9603086       -24.10972      0.006268872        -81.6483                0               0                0               0
1.65132                0.9591434       -24.35449      0.006473243       -85.58433                0               0                0               0
1.65789                0.9579293         -24.603      0.006679079       -89.52314                0               0                0               0
1.66447                0.9566642       -24.85521      0.006886396       -93.46124                0               0                0               0
1.67105                0.9553468       -25.11111      0.007095254       -97.39546                0               0                0               0
1.67763                0.9539752       -25.37065      0.007305765       -101.3229                0               0                0               0
1.68421                0.9525483        -25.6338      0.007518097       -105.2411                0               0                0               0
1.69079                0.9510651       -25.90054      0.007732473       -109.1477                0               0                0               0
1.69737                0.9495247       -26.17084      0.007949171       -113.0408                0               0                0               0
1.70395                0.9479267       -26.44468      0.008168532       -116.9188                0               0                0               0
1.71053                0.9462707       -26.72209      0.008390952       -120.7805                0               0                0               0
1.71711                0.9445566       -27.00306      0.008616888       -124.6249                0               0                0               0
1.72368                0.9427841       -27.28764      0.008846856       -128.4515                0               0                0               0
1.73026                0.9409533       -27.57587      0.009081427       -132.2601                0               0                0               0
1.73684                0.9390641       -27.86783      0.009321228       -136.0509                0               0                0               0
1.74342                0.9371165       -28.16362      0.009566935       -139.8245                0               0                0               0
1.75                   0.9351101       -28.46336      0.009819274       -143.5819                0               0                0               0
1.75658                0.9330449       -28.76718       0.01007901       -147.3242                0               0                0               0
1.76316                0.9309202       -29.07526       0.01034695       -151.0533                0               0                0               0
1.76974                0.9287352       -29.38777       0.01062391        -154.771                0               0                0               0
1.77632                0.9264888       -29.70492       0.01091076       -158.4798                0               0                0               0
1.78289                0.9241793       -30.02693       0.01120835       -162.1822                0               0                0               0
1.78947                 0.921805       -30.35404       0.01151755       -165.8812                0               0                0               0
1.79605                0.9193634       -30.68649       0.01183922       -169.5797                0               0                0               0
1.80263                0.9168515       -31.02455        0.0121742       -173.2811                0               0                0               0
1.80921                0.9142662       -31.36847       0.01252331       -176.9886                0               0                0               0
1.81579                0.9116033       -31.71852       0.01288734        179.2943                0               0                0               0
1.82237                0.9088586       -32.07496       0.01326703        175.5643                0               0                0               0
1.82895                0.9060271       -32.43804       0.01366307        171.8179                0               0                0               0
1.83553                0.9031033       -32.80802       0.01407607         168.052                0               0                0               0
1.84211                0.9000814       -33.18511       0.01450661        164.2633                0               0                0               0
1.84868                0.8969551       -33.56953       0.01495517        160.4489                0               0                0               0
1.85526                0.8937178       -33.96147       0.01542217        156.6062                0               0                0               0
1.86184                0.8903625        -34.3611       0.01590793        152.7326                0               0                0               0
1.86842                0.8868817       -34.76856        0.0164127        148.8258                0               0                0               0
1.875                  0.8832681       -35.18396       0.01693665        144.8841                0               0                0               0
1.88158                0.8795139       -35.60737       0.01747984        140.9056                0               0                0               0
1.88816                0.8756114       -36.03887       0.01804226         136.889                0               0                0               0
1.89474                0.8715529       -36.47844       0.01862382        132.8332                0               0                0               0
1.90132                0.8673306       -36.92609       0.01922434        128.7375                0               0                0               0
1.90789                0.8629368       -37.38177       0.01984354        124.6012                0               0                0               0
1.91447                0.8583642        -37.8454       0.02048107        120.4241                0               0                0               0
1.92105                0.8536054       -38.31688       0.02113653        116.2061                0               0                0               0
1.92763                0.8486533       -38.79605        0.0218094        111.9472                0               0                0               0
1.93421                0.8435015       -39.28278       0.02249911        107.6478                0               0                0               0
1.94079                0.8381434       -39.77687       0.02320503        103.3084                0               0                0               0
1.94737                 0.832573        -40.2781       0.02392644        98.92964                0               0                0               0
1.95395                0.8267845       -40.78627       0.02466259        94.51218                0               0                0               0
1.96053                0.8207729       -41.30111       0.02541264        90.05693                0               0                0               0
1.96711                 0.814533       -41.82236       0.02617571        85.56482                0               0                0               0
1.97368                0.8080605       -42.34976       0.02695087        81.03687                0               0                0               0
1.98026                 0.801351         -42.883       0.02773713        76.47417                0               0                0               0
1.98684                0.7944006        -43.4218       0.02853348        71.87784                0               0                0               0
1.99342                0.7872059       -43.96584       0.02933884        67.24902                0               0                0               0
2                      0.7797635       -44.51481       0.03015211        62.58893                0               0                0               0
2.00658                0.7720705       -45.06838       0.03097214        57.89874                0               0                0               0
2.01316                0.7641237       -45.62621       0.03179776        53.17968                0               0                0               0
2.01974                0.7559209       -46.18794       0.03262776        48.43293                0               0                0               0
2.02632                0.7474593        -46.7532       0.03346091         43.6597                0               0                0               0
2.03289                0.7387365       -47.32162       0.03429597         38.8612                0               0                0               0
2.03947                0.7297504       -47.89277       0.03513166        34.03858                0               0                0               0
2.04605                0.7204987       -48.46622       0.03596668        29.19302                0               0                0               0
2.05263                0.7109793       -49.04148       0.03679975        24.32564                0               0                0               0
2.05921                0.7011899       -49.61803       0.03762954        19.43759                0               0                0               0
2.06579                0.6911288       -50.19533       0.03845474        14.52994                0               0                0               0
2.07237                 0.680794       -50.77271       0.03927401        9.603777                0               0                0               0
2.07895                0.6701837       -51.34948       0.04008604        4.660143                0               0                0               0
2.08553                0.6592963       -51.92486        0.0408895      -0.2999317                0               0                0               0
2.09211                0.6481305       -52.49794       0.04168306       -5.275448                0               0                0               0
2.09868                 0.636685       -53.06772       0.04246544       -10.26543                0               0                0               0
2.10526                0.6249593       -53.63307        0.0432353       -15.26893                0               0                0               0
2.11184                0.6129529       -54.19269       0.04399137         -20.285                0               0                0               0
2.11842                0.6006662       -54.74512       0.04473237       -25.31276                0               0                0               0
2.125                     0.5881       -55.28871       0.04545707        -30.3513                0               0                0               0
2.13158                0.5752561       -55.82156       0.04616423       -35.39976                0               0                0               0
2.13816                0.5621369       -56.34154       0.04685264        -40.4573                0               0                0               0
2.14474                0.5487461       -56.84621       0.04752114       -45.52309                0               0                0               0
2.15132                0.5350885       -57.33281       0.04816857       -50.59631                0               0                0               0
2.15789                0.5211703        -57.7982       0.04879384       -55.67617                0               0                0               0
2.16447                0.5069992       -58.23881       0.04939587       -60.76189                0               0                0               0
2.17105                0.4925844       -58.65059       0.04997362       -65.85271                0               0                0               0
2.17763                0.4779373        -59.0289       0.05052611       -70.94785                0               0                0               0
2.18421                0.4630712       -59.36848       0.05105239       -76.04659                0               0                0               0
2.19079                0.4480018       -59.66331       0.05155156       -81.14819                0               0                0               0
2.19737                0.4327473        -59.9065       0.05202277       -86.25192                0               0                0               0
2.20395                 0.417329       -60.09017       0.05246523       -91.35707                0               0                0               0
2.21053                0.4017709       -60.20526       0.05287818       -96.46292                0               0                0               0
2.21711                0.3861012       -60.24133       0.05326094       -101.5688                0               0                0               0
2.22368                0.3703516       -60.18639       0.05361288       -106.6739                0               0                0               0
2.23026                0.3545588       -60.02654       0.05393344       -111.7776                0               0                0               0
2.23684                0.3387644       -59.74574       0.05422208       -116.8793                0               0                0               0
2.24342                0.3230162       -59.32538       0.05447838       -121.9781                0               0                0               0
2.25                   0.3073691       -58.74397       0.05470194       -127.0735                0               0                0               0
2.25658                0.2918861       -57.97663       0.05489246       -132.1646                0               0                0               0
2.26316                0.2766401       -56.99476       0.05504967       -137.2509                0               0                0               0
2.26974                0.2617153       -55.76574       0.05517341       -142.3316                0               0                0               0
2.27632                0.2472094       -54.25277       0.05526355       -147.4059                0               0                0               0
2.28289                0.2332359        -52.4153       0.05532004       -152.4732                0               0                0               0
2.28947                0.2199262       -50.21007       0.05534293       -157.5328                0               0                0               0