! TOUCHSTONE file generated by CST MICROWAVE STUDIO
! Date and time: Tue Mar 11 13:58:03 2025
! Project name: transverse.cst
! Parameters = {Fracture=5; B=12.5; D=160; F=5; Feed=2.85625; L=100; M=10; R=0.384908; S=1; Theta=270; length=57.125; wave=114.25}
! Header version: 2024
! Port assignment regex: !\s*Touchstone port\s*([0-9]+)\s*=\s*(CST MWS port|CST DES external port|CST DES block port)\s*(.+)\s* \(\"(.*)\"\)(\s*mode\s*([0-9]+))?.*
! Touchstone port assignment:
! Touchstone port 1 = CST MWS port 1 ("")
! Touchstone port 2 = CST MWS port 2 ("")
# GHz S MA R 50
1                      0.9978874       -9.732252     0.0002765134       -120.3192                0               0                0               0
1.00658                0.9978028       -9.820789     0.0002995475       -125.1276                0               0                0               0
1.01316                 0.997711       -9.909731      0.000321884       -130.0264                0               0                0               0
1.01974                0.9976126       -9.999036     0.0003433927       -134.9869                0               0                0               0
1.02632                 0.997508       -10.08867     0.0003639473       -139.9869                0               0                0               0
1.03289                0.9973981       -10.17859      0.000383426        -145.009                0               0                0               0
1.03947                0.9972838        -10.2688     0.0004017111       -150.0385                0               0                0               0
1.04605                0.9971661       -10.35926     0.0004186895       -155.0631                0               0                0               0
1.05263                 0.997046       -10.44999     0.0004342537       -160.0715                0               0                0               0
1.05921                0.9969246       -10.54099     0.0004483014       -165.0538                0               0                0               0
1.06579                 0.996803       -10.63229     0.0004607377            -170                0               0                0               0
1.07237                0.9966822       -10.72391     0.0004714749       -174.9003                0               0                0               0
1.07895                0.9965632        -10.8159     0.0004804343       -179.7448                0               0                0               0
1.08553                0.9964466       -10.90832     0.0004875466        175.4771                0               0                0               0
1.09211                0.9963333       -11.00122     0.0004927543         170.777                0               0                0               0
1.09868                0.9962238       -11.09466     0.0004960126        166.1676                0               0                0               0
1.10526                0.9961185       -11.18874     0.0004972914        161.6633                0               0                0               0
1.11184                0.9960176       -11.28352      0.000496578        157.2803                0               0                0               0
1.11842                0.9959211       -11.37909     0.0004938796        153.0378                0               0                0               0
1.125                  0.9958288       -11.47553     0.0004892267        148.9577                0               0                0               0
1.13158                0.9957404       -11.57292     0.0004826776        145.0661                0               0                0               0
1.13816                0.9956551       -11.67134      0.000474324        141.3936                0               0                0               0
1.14474                0.9955723       -11.77085     0.0004642978        137.9762                0               0                0               0
1.15132                0.9954909       -11.87154     0.0004527801        134.8567                0               0                0               0
1.15789                0.9954098       -11.97345     0.0004400122        132.0847                0               0                0               0
1.16447                0.9953281       -12.07663     0.0004263101        129.7178                0               0                0               0
1.17105                 0.995244       -12.18113     0.0004120801        127.8199                0               0                0               0
1.17763                0.9951565       -12.28696     0.0003978384        126.4595                0               0                0               0
1.18421                0.9950639       -12.39415      0.000384228        125.7026                0               0                0               0
1.19079                0.9949652        -12.5027     0.0003720301        125.6025                0               0                0               0
1.19737                0.9948587       -12.61259     0.0003621583        126.1813                0               0                0               0
1.20395                0.9947433       -12.72382     0.0003556222        127.4081                0               0                0               0
1.21053                0.9946176       -12.83635     0.0003534485        129.1782                0               0                0               0
1.21711                0.9944809       -12.95015     0.0003565607        131.3061                0               0                0               0
1.22368                 0.994332       -13.06516     0.0003656435        133.5444                0               0                0               0
1.23026                0.9941704       -13.18135     0.0003810432         135.628                0               0                0               0
1.23684                0.9939955       -13.29864     0.0004027426        137.3266                0               0                0               0
1.24342                0.9938071       -13.41699      0.000430419        138.4818                0               0                0               0
1.25                    0.993605       -13.53633     0.0004635477        139.0158                0               0                0               0
1.25658                0.9933892       -13.65662     0.0005015078        138.9186                0               0                0               0
1.26316                0.9931603       -13.77779      0.000543663        138.2258                0               0                0               0
1.26974                0.9929185        -13.8998     0.0005894081        136.9969                0               0                0               0
1.27632                0.9926648       -14.02261     0.0006381917        135.3005                0               0                0               0
1.28289                0.9923997       -14.14619     0.0006895203        133.2044                0               0                0               0
1.28947                0.9921245       -14.27053     0.0007429555        130.7716                0               0                0               0
1.29605                0.9918401       -14.39562     0.0007981069        128.0574                0               0                0               0
1.30263                0.9915475       -14.52145     0.0008546257        125.1101                0               0                0               0
1.30921                0.9912477       -14.64806     0.0009121971        121.9709                0               0                0               0
1.31579                0.9909423       -14.77547     0.0009705367        118.6749                0               0                0               0
1.32237                0.9906319       -14.90373      0.001029385        115.2519                0               0                0               0
1.32895                0.9903175        -15.0329      0.001088505        111.7275                0               0                0               0
1.33553                0.9900001       -15.16304      0.001147681        108.1237                0               0                0               0
1.34211                0.9896801       -15.29424      0.001206717        104.4593                0               0                0               0
1.34868                0.9893583       -15.42659      0.001265437        100.7509                0               0                0               0
1.35526                0.9890347       -15.56018      0.001323685        97.01284                0               0                0               0
1.36184                0.9887094       -15.69511      0.001381326        93.25806                0               0                0               0
1.36842                0.9883823       -15.83149      0.001438246        89.49792                0               0                0               0
1.375                  0.9880528       -15.96942      0.001494355        85.74269                0               0                0               0
1.38158                0.9877203       -16.10901      0.001549587        82.00163                0               0                0               0
1.38816                0.9873839       -16.25036      0.001603904        78.28316                0               0                0               0
1.39474                0.9870425       -16.39355      0.001657296        74.59494                0               0                0               0
1.40132                0.9866946       -16.53869      0.001709782        70.94394                0               0                0               0
1.40789                0.9863387       -16.68584      0.001761417        67.33644                0               0                0               0
1.41447                0.9859733       -16.83506      0.001812288        63.77811                0               0                0               0
1.42105                0.9855965       -16.98641       0.00186252        60.27395                0               0                0               0
1.42763                0.9852063       -17.13994      0.001912273        56.82824                0               0                0               0
1.43421                0.9848011       -17.29567      0.001961749        53.44456                0               0                0               0
1.44079                0.9843789        -17.4536      0.002011187        50.12566                0               0                0               0
1.44737                0.9839378       -17.61374      0.002060869        46.87338                0               0                0               0
1.45395                0.9834762       -17.77607       0.00211111        43.68863                0               0                0               0
1.46053                0.9829924       -17.94057      0.002162268        40.57126                0               0                0               0
1.46711                 0.982485        -18.1072       0.00221473        37.51999                0               0                0               0
1.47368                0.9819526       -18.27591      0.002268917        34.53237                0               0                0               0
1.48026                0.9813944       -18.44665      0.002325274        31.60474                0               0                0               0
1.48684                0.9808093       -18.61936      0.002384265        28.73225                0               0                0               0
1.49342                0.9801969       -18.79399      0.002446368        25.90885                0               0                0               0
1.5                     0.979557       -18.97047      0.002512064        23.12748                0               0                0               0
1.50658                0.9788892       -19.14876      0.002581832        20.38007                0               0                0               0
1.51316                 0.978194        -19.3288      0.002656136        17.65787                0               0                0               0
1.51974                0.9774717       -19.51055      0.002735421        14.95155                0               0                0               0
1.52632                0.9767228       -19.69397      0.002820102        12.25151                0               0                0               0
1.53289                0.9759482       -19.87906      0.002910556        9.548146                0               0                0               0
1.53947                0.9751488        -20.0658      0.003007119        6.832065                0               0                0               0
1.54605                0.9743255       -20.25422      0.003110079        4.094381                0               0                0               0
1.55263                0.9734793       -20.44433      0.003219672        1.326904                0               0                0               0
1.55921                0.9726114       -20.63618      0.003336081       -1.477686                0               0                0               0
1.56579                0.9717227       -20.82985      0.003459436       -4.325702                0               0                0               0
1.57237                0.9708142       -21.02541      0.003589816       -7.222378                0               0                0               0
1.57895                0.9698866       -21.22296       0.00372725       -10.17184                0               0                0               0
1.58553                0.9689405       -21.42262      0.003871718        -13.1771                0               0                0               0
1.59211                0.9679763       -21.62452      0.004023159       -16.24014                0               0                0               0
1.59868                0.9669939        -21.8288      0.004181472       -19.36195                0               0                0               0
1.60526                0.9659932       -22.03562      0.004346524       -22.54263                0               0                0               0
1.61184                0.9649738       -22.24514      0.004518151       -25.78151                0               0                0               0
1.61842                0.9639345       -22.45752      0.004696166       -29.07724                0               0                0               0
1.625                  0.9628743       -22.67294      0.004880362       -32.42792                0               0                0               0
1.63158                0.9617916       -22.89156      0.005070518       -35.83117                0               0                0               0
1.63816                0.9606842       -23.11354        0.0052664       -39.28428                0               0                0               0
1.64474                0.9595502       -23.33904      0.005467772       -42.78423                0               0                0               0
1.65132                0.9583867       -23.56821      0.005674394       -46.32783                0               0                0               0
1.65789                0.9571911       -23.80118      0.005886028       -49.91175                0               0                0               0
1.66447                0.9559601       -24.03806      0.006102443       -53.53258                0               0                0               0
1.67105                0.9546904       -24.27897      0.006323415        -57.1869                0               0                0               0
1.67763                 0.953379       -24.52398       0.00654874       -60.87131                0               0                0               0
1.68421                0.9520219       -24.77317       0.00677822       -64.58245                0               0                0               0
1.69079                0.9506158       -25.02657      0.007011686       -68.31705                0               0                0               0
1.69737                 0.949157       -25.28421      0.007248989       -72.07196                0               0                0               0
1.70395                0.9476421       -25.54609      0.007490004       -75.84413                0               0                0               0
1.71053                0.9460679       -25.81222      0.007734639       -79.63066                0               0                0               0
1.71711                 0.944431       -26.08254       0.00798283       -83.42882                0               0                0               0
1.72368                0.9427286       -26.35704      0.008234551       -87.23603                0               0                0               0
1.73026                0.9409581       -26.63564      0.008489812       -91.04991                0               0                0               0
1.73684                0.9391169        -26.9183       0.00874866       -94.86824                0               0                0               0
1.74342                0.9372029       -27.20492      0.009011184       -98.68903                0               0                0               0
1.75                   0.9352143       -27.49547      0.009277519       -102.5105                0               0                0               0
1.75658                0.9331498       -27.78984      0.009547841        -106.331                0               0                0               0
1.76316                0.9310081         -28.088      0.009822371       -110.1492                0               0                0               0
1.76974                0.9287885       -28.38987       0.01010138        -113.964                0               0                0               0
1.77632                0.9264901       -28.69543       0.01038517       -117.7744                0               0                0               0
1.78289                0.9241129       -29.00463       0.01067412       -121.5797                0               0                0               0
1.78947                0.9216565       -29.31747       0.01096861       -125.3796                0               0                0               0
1.79605                 0.919121       -29.63397        0.0112691       -129.1738                0               0                0               0
1.80263                0.9165063       -29.95417       0.01157606       -132.9624                0               0                0               0
1.80921                0.9138125       -30.27812       0.01189003       -136.7456                0               0                0               0
1.81579                0.9110397       -30.60592       0.01221155       -140.5239                0               0                0               0
1.82237                0.9081877       -30.93769       0.01254122        -144.298                0               0                0               0
1.82895                0.9052561       -31.27357       0.01287964       -148.0689                0               0                0               0
1.83553                0.9022443       -31.61374       0.01322743       -151.8378                0               0                0               0
1.84211                0.8991513       -31.95839       0.01358526       -155.6059                0               0                0               0
1.84868                0.8959757       -32.30774       0.01395375       -159.3747                0               0                0               0
1.85526                0.8927158       -32.66204       0.01433357       -163.1458                0               0                0               0
1.86184                 0.889369       -33.02155       0.01472535       -166.9211                0               0                0               0
1.86842                0.8859324       -33.38652       0.01512973       -170.7023                0               0                0               0
1.875                  0.8824025       -33.75725       0.01554732       -174.4915                0               0                0               0
1.88158                0.8787753       -34.13401       0.01597871       -178.2905                0               0                0               0
1.88816                0.8750456       -34.51709       0.01642442        177.8987                0               0                0               0
1.89474                0.8712083       -34.90674       0.01688499         174.074                0               0                0               0
1.90132                0.8672572       -35.30325       0.01736086        170.2335                0               0                0               0
1.90789                0.8631859       -35.70684       0.01785245        166.3754                0               0                0               0
1.91447                0.8589872       -36.11773        0.0183601        162.4978                0               0                0               0
1.92105                0.8546534       -36.53612       0.01888411         158.599                0               0                0               0
1.92763                0.8501767       -36.96214       0.01942469        154.6773                0               0                0               0
1.93421                0.8455485       -37.39593         0.019982        150.7315                0               0                0               0
1.94079                0.8407603       -37.83754       0.02055612          146.76                0               0                0               0
1.94737                0.8358033         -38.287       0.02114705        142.7618                0               0                0               0
1.95395                0.8306687       -38.74428       0.02175474        138.7358                0               0                0               0
1.96053                0.8253475       -39.20931       0.02237902        134.6812                0               0                0               0
1.96711                0.8198311       -39.68197       0.02301969        130.5972                0               0                0               0
1.97368                0.8141111       -40.16205       0.02367645        126.4833                0               0                0               0
1.98026                0.8081791       -40.64933       0.02434892        122.3392                0               0                0               0
1.98684                0.8020273       -41.14351       0.02503667        118.1645                0               0                0               0
1.99342                0.7956485       -41.64422       0.02573917        113.9592                0               0                0               0
2                      0.7890359        -42.1511       0.02645586        109.7232                0               0                0               0
2.00658                0.7821833       -42.66365       0.02718606        105.4567                0               0                0               0
2.01316                0.7750855        -43.1814       0.02792907          101.16                0               0                0               0
2.01974                0.7677376       -43.70378       0.02868411        96.83336                0               0                0               0
2.02632                0.7601357        -44.2302       0.02945034        92.47726                0               0                0               0
2.03289                0.7522768       -44.76003       0.03022686        88.09221                0               0                0               0
2.03947                0.7441588       -45.29259       0.03101274        83.67879                0               0                0               0
2.04605                0.7357799       -45.82718       0.03180697        79.23768                0               0                0               0
2.05263                0.7271398       -46.36305       0.03260852        74.76956                0               0                0               0
2.05921                0.7182385       -46.89943        0.0334163         70.2752                0               0                0               0
2.06579                0.7090771       -47.43552       0.03422918        65.75539                0               0                0               0
2.07237                0.6996572       -47.97048       0.03504601        61.21094                0               0                0               0
2.07895                0.6899814       -48.50346        0.0358656        56.64272                0               0                0               0
2.08553                0.6800525       -49.03359       0.03668672        52.05159                0               0                0               0
2.09211                0.6698742       -49.55996       0.03750813        47.43842                0               0                0               0
2.09868                0.6594507       -50.08161       0.03832857        42.80414                0               0                0               0
2.10526                0.6487866       -50.59761       0.03914675        38.14962                0               0                0               0
2.11184                0.6378868       -51.10694       0.03996136        33.47577                0               0                0               0
2.11842                0.6267566       -51.60856        0.0407711        28.78351                0               0                0               0
2.125                  0.6154017       -52.10138       0.04157466        24.07374                0               0                0               0
2.13158                0.6038277       -52.58425        0.0423707        19.34734                0               0                0               0
2.13816                0.5920407       -53.05595       0.04315791        14.60522                0               0                0               0
2.14474                0.5800467       -53.51519       0.04393496         9.84826                0               0                0               0
2.15132                0.5678519       -53.96055       0.04470055        5.077337                0               0                0               0
2.15789                0.5554624       -54.39051       0.04545336        0.293318                0               0                0               0
2.16447                0.5428846       -54.80342       0.04619212       -4.502941                0               0                0               0
2.17105                0.5301249       -55.19743       0.04691555       -9.310593                0               0                0               0
2.17763                0.5171898        -55.5705       0.04762238        -14.1288                0               0                0               0
2.18421                 0.504086       -55.92036       0.04831141       -18.95675                0               0                0               0
2.19079                0.4908204       -56.24443       0.04898141        -23.7936                0               0                0               0
2.19737                0.4774003        -56.5398       0.04963121       -28.63858                0               0                0               0
2.20395                0.4638334       -56.80319       0.05025967       -33.49088                0               0                0               0
2.21053                 0.450128       -57.03084       0.05086569       -38.34971                0               0                0               0
2.21711                0.4362932       -57.21841       0.05144819       -43.21431                0               0                0               0
2.22368                0.4223394       -57.36097       0.05200615       -48.08391                0               0                0               0
2.23026                0.4082776        -57.4528       0.05253858       -52.95775                0               0                0               0
2.23684                0.3941209       -57.48729       0.05304455       -57.83508                0               0                0               0
2.24342                 0.379884       -57.45681       0.05352316       -62.71516                0               0                0               0
2.25                    0.365584       -57.35246       0.05397359       -67.59724                0               0                0               0
2.25658                0.3512408       -57.16391       0.05439504       -72.48061                0               0                0               0
2.26316                0.3368776        -56.8791       0.05478679       -77.36454                0               0                0               0
2.26974                0.3225217       -56.48395       0.05514818        -82.2483                0               0                0               0
2.27632                0.3082053       -55.96204       0.05547857       -87.13116                0               0                0               0
2.28289                0.2939663       -55.29415       0.05577744       -92.01242                0               0                0               0
2.28947                0.2798501       -54.45784        0.0560443       -96.89135                0               0                0               0