! TOUCHSTONE file generated by CST MICROWAVE STUDIO
! Date and time: Tue Mar 11 13:57:52 2025
! Project name: transverse.cst
! Parameters = {Fracture=1; B=10; D=160; F=5; Feed=2.85625; L=100; M=30; R=0.384908; S=1; Theta=270; length=57.125; wave=114.25}
! Header version: 2024
! Port assignment regex: !\s*Touchstone port\s*([0-9]+)\s*=\s*(CST MWS port|CST DES external port|CST DES block port)\s*(.+)\s* \(\"(.*)\"\)(\s*mode\s*([0-9]+))?.*
! Touchstone port assignment:
! Touchstone port 1 = CST MWS port 1 ("")
! Touchstone port 2 = CST MWS port 2 ("")
# GHz S MA R 50
1                      0.9977298       -10.00601     0.0003356083       -152.5824                0               0                0               0
1.00658                0.9976305        -10.0957     0.0003492701       -156.7595                0               0                0               0
1.01316                0.9975258       -10.18572     0.0003622751       -160.9601                0               0                0               0
1.01974                0.9974166       -10.27605     0.0003745523       -165.1698                0               0                0               0
1.02632                0.9973034       -10.36669     0.0003860365       -169.3755                0               0                0               0
1.03289                0.9971872       -10.45761     0.0003966693       -173.5645                0               0                0               0
1.03947                0.9970688       -10.54884     0.0004064001       -177.7247                0               0                0               0
1.04605                0.9969488       -10.64037     0.0004151861        178.1557                0               0                0               0
1.05263                0.9968283       -10.73224     0.0004229942        174.0885                0               0                0               0
1.05921                0.9967081       -10.82446     0.0004298017        170.0858                0               0                0               0
1.06579                0.9965887       -10.91709     0.0004355977        166.1599                0               0                0               0
1.07237                0.9964708       -11.01016     0.0004403845        162.3235                0               0                0               0
1.07895                 0.996355       -11.10372     0.0004441795          158.59                0               0                0               0
1.08553                0.9962415       -11.19784     0.0004470167        154.9731                0               0                0               0
1.09211                0.9961306       -11.29256     0.0004489491        151.4873                0               0                0               0
1.09868                0.9960223       -11.38797     0.0004500506        148.1477                0               0                0               0
1.10526                0.9959168       -11.48411     0.0004504183        144.9695                0               0                0               0
1.11184                0.9958136       -11.58106     0.0004501753        141.9683                0               0                0               0
1.11842                0.9957123       -11.67887     0.0004494721        139.1591                0               0                0               0
1.125                  0.9956126       -11.77761     0.0004484896        136.5559                0               0                0               0
1.13158                0.9955135       -11.87732     0.0004474392        134.1706                0               0                0               0
1.13816                0.9954143       -11.97806     0.0004465641        132.0118                0               0                0               0
1.14474                0.9953143       -12.07986      0.000446137        130.0836                0               0                0               0
1.15132                0.9952122       -12.18276     0.0004464569        128.3838                0               0                0               0
1.15789                0.9951074       -12.28678     0.0004478422        126.9021                0               0                0               0
1.16447                0.9949985       -12.39194     0.0004506218        125.6192                0               0                0               0
1.17105                0.9948846       -12.49823     0.0004551219        124.5059                0               0                0               0
1.17763                0.9947647       -12.60567     0.0004616518        123.5238                0               0                0               0
1.18421                0.9946378       -12.71423     0.0004704876        122.6263                0               0                0               0
1.19079                 0.994503       -12.82389     0.0004818584        121.7623                0               0                0               0
1.19737                0.9943597       -12.93463     0.0004959344        120.8786                0               0                0               0
1.20395                0.9942071       -13.04642     0.0005128203        119.9249                0               0                0               0
1.21053                0.9940447       -13.15922      0.000532554        118.8564                0               0                0               0
1.21711                0.9938722       -13.27299     0.0005551105        117.6367                0               0                0               0
1.22368                0.9936895       -13.38769     0.0005804092        116.2392                0               0                0               0
1.23026                0.9934965       -13.50327     0.0006083246        114.6469                0               0                0               0
1.23684                0.9932935        -13.6197      0.000638696        112.8515                0               0                0               0
1.24342                0.9930806       -13.73693     0.0006713382        110.8525                0               0                0               0
1.25                   0.9928584       -13.85495     0.0007060499        108.6552                0               0                0               0
1.25658                0.9926275       -13.97372     0.0007426209        106.2693                0               0                0               0
1.26316                0.9923885       -14.09323     0.0007808376        103.7072                0               0                0               0
1.26974                0.9921425       -14.21346      0.000820487        100.9832                0               0                0               0
1.27632                  0.99189       -14.33443     0.0008613594         98.1124                0               0                0               0
1.28289                0.9916321       -14.45614     0.0009032508        95.11012                0               0                0               0
1.28947                0.9913698       -14.57861     0.0009459641        91.99141                0               0                0               0
1.29605                0.9911038       -14.70189     0.0009893099        88.77076                0               0                0               0
1.30263                0.9908352       -14.82601      0.001033108          85.462                0               0                0               0
1.30921                0.9905645       -14.95103      0.001077188        82.07816                0               0                0               0
1.31579                0.9902926       -15.07701       0.00112139        78.63146                0               0                0               0
1.32237                0.9900199       -15.20403      0.001165564        75.13331                0               0                0               0
1.32895                0.9897467       -15.33216      0.001209572        71.59439                0               0                0               0
1.33553                0.9894734       -15.46149      0.001253291        68.02464                0               0                0               0
1.34211                0.9891999       -15.59211       0.00129661        64.43335                0               0                0               0
1.34868                0.9889261        -15.7241      0.001339431        60.82923                0               0                0               0
1.35526                0.9886516       -15.85758      0.001381677         57.2204                0               0                0               0
1.36184                0.9883758       -15.99261      0.001423283        53.61448                0               0                0               0
1.36842                0.9880979       -16.12929      0.001464205        50.01862                0               0                0               0
1.375                  0.9878172        -16.2677       0.00150442        46.43949                0               0                0               0
1.38158                0.9875326       -16.40792      0.001543924        42.88335                0               0                0               0
1.38816                0.9872425       -16.55002      0.001582736        39.35598                0               0                0               0
1.39474                0.9869461       -16.69406      0.001620899        35.86275                0               0                0               0
1.40132                0.9866417       -16.84008      0.001658482        32.40855                0               0                0               0
1.40789                 0.986328       -16.98814      0.001695578        28.99774                0               0                0               0
1.41447                0.9860035       -17.13825      0.001732308        25.63418                0               0                0               0
1.42105                0.9856665       -17.29044       0.00176882        22.32112                0               0                0               0
1.42763                0.9853158       -17.44473      0.001805288        19.06114                0               0                0               0
1.43421                0.9849502       -17.60111      0.001841915        15.85611                0               0                0               0
1.44079                0.9845682       -17.75957      0.001878928        12.70713                0               0                0               0
1.44737                0.9841687       -17.92011      0.001916579        9.614413                0               0                0               0
1.45395                0.9837509        -18.0827      0.001955143         6.57729                0               0                0               0
1.46053                0.9833137       -18.24732      0.001994916        3.594116                0               0                0               0
1.46711                0.9828567       -18.41394      0.002036207       0.6622667                0               0                0               0
1.47368                0.9823793       -18.58255      0.002079339       -2.221875                0               0                0               0
1.48026                0.9818813       -18.75311       0.00212464       -5.062882                0               0                0               0
1.48684                0.9813625       -18.92561      0.002172443       -7.866234                0               0                0               0
1.49342                0.9808229       -19.10004      0.002223074       -10.63822                0               0                0               0
1.5                    0.9802628       -19.27638       0.00227685       -13.38578                0               0                0               0
1.50658                0.9796824       -19.45464      0.002334073       -16.11642                0               0                0               0
1.51316                0.9790821       -19.63484      0.002395021       -18.83792                0               0                0               0
1.51974                0.9784623         -19.817       0.00245995       -21.55822                0               0                0               0
1.52632                0.9778235       -20.00116      0.002529079       -24.28517                0               0                0               0
1.53289                0.9771662       -20.18737      0.002602598       -27.02636                0               0                0               0
1.53947                0.9764909       -20.37569      0.002680657       -29.78889                0               0                0               0
1.54605                0.9757978       -20.56621      0.002763371       -32.57925                0               0                0               0
1.55263                0.9750872       -20.75901       0.00285081        -35.4032                0               0                0               0
1.55921                 0.974359        -20.9542      0.002943012       -38.26561                0               0                0               0
1.56579                0.9736132       -21.15189      0.003039975       -41.17051                0               0                0               0
1.57237                0.9728496        -21.3522      0.003141663       -44.12097                0               0                0               0
1.57895                0.9720676       -21.55525      0.003248008       -47.11917                0               0                0               0
1.58553                0.9712661        -21.7612      0.003358913       -50.16641                0               0                0               0
1.59211                0.9704443       -21.97016      0.003474257       -53.26319                0               0                0               0
1.59868                0.9696006       -22.18229      0.003593896       -56.40924                0               0                0               0
1.60526                0.9687334       -22.39771      0.003717672       -59.60365                0               0                0               0
1.61184                0.9678408       -22.61656      0.003845411       -62.84494                0               0                0               0
1.61842                0.9669206       -22.83897       0.00397693       -66.13111                0               0                0               0
1.625                  0.9659705       -23.06505      0.004112044       -69.45978                0               0                0               0
1.63158                0.9649877       -23.29492      0.004250561       -72.82822                0               0                0               0
1.63816                0.9639694       -23.52867      0.004392298       -76.23348                0               0                0               0
1.64474                0.9629127       -23.76638      0.004537074       -79.67238                0               0                0               0
1.65132                0.9618145       -24.00811      0.004684719       -83.14164                0               0                0               0
1.65789                0.9606715       -24.25394      0.004835077       -86.63787                0               0                0               0
1.66447                0.9594809       -24.50388      0.004988011        -90.1577                0               0                0               0
1.67105                0.9582391       -24.75796        0.0051434       -93.69772                0               0                0               0
1.67763                0.9569433       -25.01619      0.005301153       -97.25461                0               0                0               0
1.68421                0.9555904       -25.27857        0.0054612       -100.8251                0               0                0               0
1.69079                0.9541776       -25.54506      0.005623507       -104.4061                0               0                0               0
1.69737                0.9527022       -25.81566       0.00578807       -107.9945                0               0                0               0
1.70395                0.9511617       -26.09031      0.005954921       -111.5876                0               0                0               0
1.71053                0.9495538       -26.36896      0.006124135       -115.1826                0               0                0               0
1.71711                0.9478766       -26.65158      0.006295826       -118.7771                0               0                0               0
1.72368                 0.946128       -26.93812       0.00647015        -122.369                0               0                0               0
1.73026                0.9443067       -27.22851      0.006647312       -125.9562                0               0                0               0
1.73684                0.9424113       -27.52272      0.006827563       -129.5371                0               0                0               0
1.74342                0.9404406       -27.82071      0.007011202       -133.1103                0               0                0               0
1.75                   0.9383938       -28.12245      0.007198577       -136.6746                0               0                0               0
1.75658                0.9362703       -28.42792      0.007390084       -140.2295                0               0                0               0
1.76316                0.9340693       -28.73713      0.007586167       -143.7743                0               0                0               0
1.76974                0.9317904       -29.05009      0.007787317       -147.3091                0               0                0               0
1.77632                 0.929433       -29.36684      0.007994067       -150.8342                0               0                0               0
1.78289                0.9269967       -29.68742      0.008206994       -154.3502                0               0                0               0
1.78947                 0.924481       -30.01191      0.008426708       -157.8581                0               0                0               0
1.79605                0.9218851        -30.3404      0.008653856       -161.3594                0               0                0               0
1.80263                0.9192084         -30.673      0.008889109       -164.8555                0               0                0               0
1.80921                0.9164497       -31.00985       0.00913316       -168.3487                0               0                0               0
1.81579                0.9136077        -31.3511      0.009386717       -171.8411                0               0                0               0
1.82237                0.9106806       -31.69691      0.009650493       -175.3354                0               0                0               0
1.82895                0.9076666       -32.04746      0.009925201       -178.8342                0               0                0               0
1.83553                0.9045631       -32.40294       0.01021155        177.6595                0               0                0               0
1.84211                0.9013674       -32.76355       0.01051022        174.1427                0               0                0               0
1.84868                 0.898076       -33.12949       0.01082188        170.6122                0               0                0               0
1.85526                0.8946852       -33.50097       0.01114717         167.065                0               0                0               0
1.86184                0.8911909       -33.87818       0.01148668        163.4978                0               0                0               0
1.86842                0.8875881       -34.26132       0.01184095        159.9078                0               0                0               0
1.875                  0.8838718       -34.65058       0.01221048        156.2919                0               0                0               0
1.88158                0.8800364        -35.0461       0.01259571        152.6475                0               0                0               0
1.88816                0.8760759       -35.44805       0.01299703         148.972                0               0                0               0
1.89474                0.8719842       -35.85654       0.01341473         145.263                0               0                0               0
1.90132                0.8677543       -36.27168       0.01384908        141.5186                0               0                0               0
1.90789                0.8633796       -36.69351       0.01430024        137.7368                0               0                0               0
1.91447                 0.858853       -37.12211       0.01476831        133.9163                0               0                0               0
1.92105                0.8541674       -37.55744       0.01525333        130.0556                0               0                0               0
1.92763                0.8493156       -37.99948       0.01575526        126.1538                0               0                0               0
1.93421                0.8442904       -38.44815       0.01627399        122.2101                0               0                0               0
1.94079                0.8390848       -38.90334       0.01680934        118.2242                0               0                0               0
1.94737                0.8336918       -39.36489       0.01736105        114.1957                0               0                0               0
1.95395                0.8281049       -39.83259       0.01792881        110.1246                0               0                0               0
1.96053                0.8223177       -40.30624       0.01851223        106.0111                0               0                0               0
1.96711                 0.816324       -40.78554       0.01911088        101.8555                0               0                0               0
1.97368                0.8101184       -41.27018       0.01972425        97.65849                0               0                0               0
1.98026                0.8036958       -41.75983       0.02035177         93.4206                0               0                0               0
1.98684                0.7970514       -42.25408       0.02099283        89.14267                0               0                0               0
1.99342                0.7901812       -42.75252       0.02164676        84.82558                0               0                0               0
2                      0.7830816       -43.25471       0.02231284        80.47034                0               0                0               0
2.00658                0.7757495       -43.76017       0.02299031        76.07801                0               0                0               0
2.01316                0.7681827       -44.26837       0.02367835        71.64971                0               0                0               0
2.01974                0.7603792       -44.77881       0.02437611        67.18661                0               0                0               0
2.02632                0.7523378        -45.2909       0.02508272        62.68992                0               0                0               0
2.03289                0.7440577       -45.80408       0.02579724        58.16087                0               0                0               0
2.03947                0.7355387       -46.31773        0.0265187         53.6007                0               0                0               0
2.04605                0.7267813       -46.83123       0.02724614        49.01067                0               0                0               0
2.05263                0.7177862       -47.34393       0.02797853        44.39203                0               0                0               0
2.05921                0.7085546       -47.85514       0.02871482        39.74603                0               0                0               0
2.06579                0.6990882       -48.36418       0.02945397         35.0739                0               0                0               0
2.07237                 0.689389        -48.8703       0.03019487        30.37687                0               0                0               0
2.07895                0.6794594       -49.37276       0.03093645        25.65616                0               0                0               0
2.08553                 0.669302       -49.87075       0.03167758        20.91294                0               0                0               0
2.09211                0.6589198       -50.36343       0.03241713        16.14839                0               0                0               0
2.09868                 0.648316       -50.84991       0.03315398        11.36364                0               0                0               0
2.10526                0.6374939       -51.32928       0.03388699        6.559822                0               0                0               0
2.11184                0.6264571        -51.8005       0.03461501        1.738027                0               0                0               0
2.11842                0.6152096        -52.2625        0.0353369       -3.100677                0               0                0               0
2.125                  0.6037553        -52.7141       0.03605152        -7.95524                0               0                0               0
2.13158                0.5920983       -53.15403       0.03675774       -12.82464                0               0                0               0
2.13816                0.5802433       -53.58088       0.03745441        -17.7079                0               0                0               0
2.14474                 0.568195       -53.99313       0.03814045       -22.60402                0               0                0               0
2.15132                0.5559582       -54.38907       0.03881472       -27.51206                0               0                0               0
2.15789                0.5435387       -54.76681       0.03947615        -32.4311                0               0                0               0
2.16447                0.5309422       -55.12425       0.04012367       -37.36023                0               0                0               0
2.17105                0.5181749       -55.45904       0.04075621       -42.29857                0               0                0               0
2.17763                0.5052441       -55.76855       0.04137276       -47.24524                0               0                0               0
2.18421                0.4921575       -56.04983       0.04197233        -52.1994                0               0                0               0
2.19079                0.4789236       -56.29954       0.04255393       -57.16023                0               0                0               0
2.19737                0.4655521       -56.51393       0.04311663        -62.1269                0               0                0               0
2.20395                0.4520538       -56.68876       0.04365951       -67.09862                0               0                0               0
2.21053                0.4384409       -56.81923       0.04418171       -72.07459                0               0                0               0
2.21711                 0.424727       -56.89989        0.0446824       -77.05406                0               0                0               0
2.22368                0.4109278       -56.92458       0.04516077       -82.03626                0               0                0               0
2.23026                0.3970609       -56.88628       0.04561608       -87.02043                0               0                0               0
2.23684                0.3831462         -56.777       0.04604761       -92.00584                0               0                0               0
2.24342                0.3692066       -56.58768       0.04645473       -96.99176                0               0                0               0
2.25                   0.3552679       -56.30798       0.04683679       -101.9775                0               0                0               0
2.25658                0.3413597       -55.92612       0.04719325       -106.9622                0               0                0               0
2.26316                0.3275157       -55.42874       0.04752359       -111.9453                0               0                0               0
2.26974                0.3137747       -54.80062       0.04782736       -116.9261                0               0                0               0
2.27632                0.3001808       -54.02458       0.04810414       -121.9038                0               0                0               0
2.28289                0.2867847       -53.08125       0.04835358       -126.8778                0               0                0               0
2.28947                0.2736448       -51.94899        0.0485754       -131.8473                0               0                0               0