! TOUCHSTONE file generated by CST MICROWAVE STUDIO
! Date and time: Tue Mar 11 13:58:19 2025
! Project name: transverse.cst
! Parameters = {Fracture=5; B=12.5; D=160; F=15; Feed=2.85625; L=100; M=10; R=0.384908; S=2; Theta=270; length=57.125; wave=114.25}
! Header version: 2024
! Port assignment regex: !\s*Touchstone port\s*([0-9]+)\s*=\s*(CST MWS port|CST DES external port|CST DES block port)\s*(.+)\s* \(\"(.*)\"\)(\s*mode\s*([0-9]+))?.*
! Touchstone port assignment:
! Touchstone port 1 = CST MWS port 1 ("")
! Touchstone port 2 = CST MWS port 2 ("")
# GHz S MA R 50
1                      0.9978141       -9.747931     0.0003130472       -152.4286                0               0                0               0
1.0066                 0.9977329       -9.836118     0.0003183867       -155.7332                0               0                0               0
1.0132                 0.9976472       -9.924794     0.0003232397       -158.9299                0               0                0               0
1.0198                 0.9975573       -10.01395     0.0003276506       -162.0067                0               0                0               0
1.0264                 0.9974635       -10.10357      0.000331679       -164.9522                0               0                0               0
1.033                  0.9973664       -10.19365     0.0003354012       -167.7555                0               0                0               0
1.0396                  0.997266        -10.2842      0.000338911       -170.4068                0               0                0               0
1.0462                  0.997163       -10.37521     0.0003423214       -172.8978                0               0                0               0
1.05281                0.9970576       -10.46671      0.000345764       -175.2223                0               0                0               0
1.05941                0.9969505       -10.55869     0.0003493899       -177.3773                0               0                0               0
1.06601                0.9968417       -10.65119     0.0003533678       -179.3633                0               0                0               0
1.07261                 0.996732       -10.74422     0.0003578828        178.8145                0               0                0               0
1.07921                0.9966213       -10.83781      0.000363132        177.1458                0               0                0               0
1.08581                0.9965102       -10.93199     0.0003693203        175.6145                0               0                0               0
1.09241                0.9963986       -11.02681     0.0003766545        174.1989                0               0                0               0
1.09901                0.9962865       -11.12229      0.000385336         172.872                0               0                0               0
1.10561                0.9961743       -11.21848     0.0003955538        171.6026                0               0                0               0
1.11221                0.9960618       -11.31541      0.000407477        170.3564                0               0                0               0
1.11881                0.9959487       -11.41313     0.0004212494        169.0987                0               0                0               0
1.12541                0.9958348       -11.51167     0.0004369843        167.7956                0               0                0               0
1.13201                0.9957198       -11.61107     0.0004547626         166.416                0               0                0               0
1.13861                0.9956035       -11.71137     0.0004746319        164.9332                0               0                0               0
1.14521                0.9954851       -11.81259     0.0004966083        163.3259                0               0                0               0
1.15182                0.9953641       -11.91478     0.0005206791        161.5784                0               0                0               0
1.15842                  0.99524       -12.01794      0.000546807        159.6805                0               0                0               0
1.16502                0.9951123        -12.1221     0.0005749334        157.6271                0               0                0               0
1.17162                0.9949802       -12.22729     0.0006049835        155.4175                0               0                0               0
1.17822                0.9948432       -12.33349     0.0006368693        153.0547                0               0                0               0
1.18482                0.9947006       -12.44073     0.0006704936        150.5441                0               0                0               0
1.19142                0.9945516       -12.54899      0.000705752        147.8935                0               0                0               0
1.19802                 0.994396       -12.65828     0.0007425364        145.1117                0               0                0               0
1.20462                0.9942331       -12.76859     0.0007807353        142.2084                0               0                0               0
1.21122                0.9940625        -12.8799     0.0008202366        139.1936                0               0                0               0
1.21782                0.9938838        -12.9922      0.000860928        136.0777                0               0                0               0
1.22442                0.9936968       -13.10548     0.0009026982        132.8704                0               0                0               0
1.23102                0.9935012       -13.21972     0.0009454371        129.5817                0               0                0               0
1.23762                0.9932968        -13.3349     0.0009890377        126.2206                0               0                0               0
1.24422                 0.993084         -13.451      0.001033396        122.7961                0               0                0               0
1.25083                0.9928623         -13.568       0.00107841        119.3165                0               0                0               0
1.25743                0.9926325        -13.6859      0.001123984        115.7896                0               0                0               0
1.26403                0.9923944       -13.80469      0.001170026        112.2228                0               0                0               0
1.27063                0.9921484       -13.92436       0.00121645        108.6229                0               0                0               0
1.27723                0.9918948       -14.04491      0.001263174        104.9963                0               0                0               0
1.28383                0.9916344       -14.16634      0.001310125        101.3491                0               0                0               0
1.29043                0.9913672       -14.28867      0.001357236        97.68687                0               0                0               0
1.29703                0.9910938       -14.41191      0.001404449        94.01481                0               0                0               0
1.30363                0.9908148        -14.5361      0.001451713        90.33782                0               0                0               0
1.31023                0.9905305       -14.66124      0.001498988        86.66042                0               0                0               0
1.31683                0.9902412       -14.78739      0.001546243        82.98683                0               0                0               0
1.32343                0.9899475       -14.91459       0.00159346        79.32095                0               0                0               0
1.33003                0.9896496       -15.04287      0.001640629        75.66638                0               0                0               0
1.33663                0.9893474        -15.1723      0.001687756        72.02644                0               0                0               0
1.34323                0.9890414       -15.30292      0.001734857        68.40411                0               0                0               0
1.34984                0.9887315        -15.4348      0.001781963        64.80211                0               0                0               0
1.35644                0.9884175       -15.56799      0.001829117        61.22283                0               0                0               0
1.36304                0.9880993       -15.70257      0.001876378        57.66835                0               0                0               0
1.36964                0.9877765       -15.83858      0.001923817        54.14042                0               0                0               0
1.37624                0.9874488       -15.97609      0.001971521        50.64046                0               0                0               0
1.38284                0.9871156       -16.11516       0.00201959        47.16954                0               0                0               0
1.38944                0.9867762       -16.25585      0.002068138        43.72835                0               0                0               0
1.39604                  0.98643       -16.39821      0.002117292        40.31724                0               0                0               0
1.40264                0.9860763        -16.5423      0.002167191        36.93613                0               0                0               0
1.40924                0.9857141       -16.68815      0.002217985        33.58458                0               0                0               0
1.41584                0.9853427       -16.83582      0.002269835        30.26177                0               0                0               0
1.42244                0.9849611       -16.98533      0.002322909        26.96646                0               0                0               0
1.42904                0.9845682       -17.13672      0.002377383        23.69708                0               0                0               0
1.43564                0.9841634       -17.29001      0.002433436        20.45165                0               0                0               0
1.44224                0.9837456       -17.44523      0.002491251        17.22791                0               0                0               0
1.44884                0.9833139       -17.60239       0.00255101        14.02326                0               0                0               0
1.45545                0.9828678       -17.76151      0.002612895        10.83487                0               0                0               0
1.46205                0.9824063       -17.92259      0.002677081         7.65967                0               0                0               0
1.46865                0.9819288       -18.08564      0.002743739        4.494453                0               0                0               0
1.47525                0.9814347       -18.25067      0.002813029        1.335895                0               0                0               0
1.48185                0.9809235       -18.41769      0.002885099       -1.819369                0               0                0               0
1.48845                0.9803949       -18.58671      0.002960088       -4.974688                0               0                0               0
1.49505                0.9798484       -18.75772      0.003038115       -8.133339                0               0                0               0
1.50165                0.9792839       -18.93076      0.003119286       -11.29847                0               0                0               0
1.50825                0.9787012       -19.10582       0.00320369       -14.47304                0               0                0               0
1.51485                0.9781003       -19.28295      0.003291398       -17.65979                0               0                0               0
1.52145                0.9774809       -19.46215      0.003382459        -20.8612                0               0                0               0
1.52805                0.9768433       -19.64348      0.003476909       -24.07945                0               0                0               0
1.53465                0.9761874       -19.82696      0.003574762       -27.31639                0               0                0               0
1.54125                 0.975513       -20.01265      0.003676015       -30.57357                0               0                0               0
1.54785                0.9748204       -20.20061      0.003780651       -33.85217                0               0                0               0
1.55446                0.9741093       -20.39091      0.003888635       -37.15306                0               0                0               0
1.56106                0.9733797       -20.58361      0.003999918       -40.47677                0               0                0               0
1.56766                0.9726314       -20.77881      0.004114439       -43.82353                0               0                0               0
1.57426                0.9718641       -20.97658      0.004232126       -47.19324                0               0                0               0
1.58086                0.9710774       -21.17704      0.004352899       -50.58557                0               0                0               0
1.58746                0.9702707       -21.38027      0.004476672       -53.99989                0               0                0               0
1.59406                0.9694432        -21.5864      0.004603351       -57.43538                0               0                0               0
1.60066                 0.968594       -21.79553      0.004732841         -60.891                0               0                0               0
1.60726                0.9677223       -22.00777      0.004865052       -64.36554                0               0                0               0
1.61386                0.9668266       -22.22326      0.004999887       -67.85763                0               0                0               0
1.62046                0.9659057       -22.44209      0.005137262       -71.36581                0               0                0               0
1.62706                0.9649577        -22.6644      0.005277094        -74.8885                0               0                0               0
1.63366                 0.963981       -22.89029      0.005419312       -78.42404                0               0                0               0
1.64026                0.9629737       -23.11988      0.005563857       -81.97076                0               0                0               0
1.64686                0.9619337       -23.35328      0.005710682       -85.52691                0               0                0               0
1.65347                0.9608586       -23.59058      0.005859759        -89.0908                0               0                0               0
1.66007                0.9597462       -23.83189      0.006011075        -92.6607                0               0                0               0
1.66667                0.9585939        -24.0773      0.006164642       -96.23496                0               0                0               0
1.67327                0.9573992       -24.32689      0.006320489       -99.81196                0               0                0               0
1.67987                0.9561593       -24.58073      0.006478673       -103.3902                0               0                0               0
1.68647                0.9548715       -24.83889      0.006639277       -106.9681                0               0                0               0
1.69307                0.9535333       -25.10144      0.006802413       -110.5445                0               0                0               0
1.69967                0.9521418       -25.36843      0.006968219       -114.1182                0               0                0               0
1.70627                 0.950694        -25.6399      0.007136866        -117.688                0               0                0               0
1.71287                0.9491875       -25.91591      0.007308556        -121.253                0               0                0               0
1.71947                0.9476195       -26.19648      0.007483522       -124.8126                0               0                0               0
1.72607                0.9459873       -26.48165      0.007662029       -128.3662                0               0                0               0
1.73267                0.9442883       -26.77144      0.007844374       -131.9134                0               0                0               0
1.73927                0.9425199        -27.0659      0.008030886       -135.4541                0               0                0               0
1.74587                0.9406795       -27.36504      0.008221924       -138.9883                0               0                0               0
1.75248                0.9387648       -27.66889      0.008417874       -142.5164                0               0                0               0
1.75908                0.9367733       -27.97748      0.008619152       -146.0388                0               0                0               0
1.76568                0.9347026       -28.29084      0.008826194       -149.5562                0               0                0               0
1.77228                0.9325502       -28.60901      0.009039463       -153.0697                0               0                0               0
1.77888                0.9303141       -28.93203      0.009259436       -156.5804                0               0                0               0
1.78548                0.9279915       -29.25995      0.009486604       -160.0895                0               0                0               0
1.79208                0.9255803       -29.59281      0.009721474       -163.5987                0               0                0               0
1.79868                0.9230778       -29.93067      0.009964553       -167.1097                0               0                0               0
1.80528                0.9204814        -30.2736       0.01021635       -170.6243                0               0                0               0
1.81188                0.9177887       -30.62166       0.01047737       -174.1445                0               0                0               0
1.81848                0.9149968       -30.97493       0.01074812       -177.6724                0               0                0               0
1.82508                0.9121026       -31.33349       0.01102907        178.7899                0               0                0               0
1.83168                0.9091033       -31.69742       0.01132069        175.2401                0               0                0               0
1.83828                0.9059953       -32.06681       0.01162342        171.6761                0               0                0               0
1.84488                0.9027753       -32.44175       0.01193767        168.0957                0               0                0               0
1.85149                0.8994395       -32.82233       0.01226383        164.4966                0               0                0               0
1.85809                 0.895984       -33.20863       0.01260223        160.8769                0               0                0               0
1.86469                0.8924047       -33.60074       0.01295319        157.2346                0               0                0               0
1.87129                 0.888697       -33.99874       0.01331694        153.5677                0               0                0               0
1.87789                0.8848565       -34.40269       0.01369372        149.8746                0               0                0               0
1.88449                0.8808782       -34.81266       0.01408369        146.1536                0               0                0               0
1.89109                0.8767572        -35.2287       0.01448695        142.4033                0               0                0               0
1.89769                0.8724883       -35.65084       0.01490357        138.6226                0               0                0               0
1.90429                0.8680659       -36.07911       0.01533356        134.8102                0               0                0               0
1.91089                0.8634845       -36.51349       0.01577688        130.9654                0               0                0               0
1.91749                0.8587386       -36.95397       0.01623343        127.0874                0               0                0               0
1.92409                0.8538226       -37.40052       0.01670308        123.1756                0               0                0               0
1.93069                0.8487304       -37.85305        0.0171856        119.2296                0               0                0               0
1.93729                0.8434565       -38.31148       0.01768077        115.2494                0               0                0               0
1.94389                0.8379952       -38.77569       0.01818827        111.2347                0               0                0               0
1.9505                 0.8323406       -39.24553       0.01870777        107.1856                0               0                0               0
1.9571                 0.8264875       -39.72082       0.01923886        103.1024                0               0                0               0
1.9637                 0.8204304       -40.20135       0.01978111        98.98544                0               0                0               0
1.9703                 0.8141642       -40.68688       0.02033404        94.83504                0               0                0               0
1.9769                 0.8076839       -41.17713       0.02089713        90.65177                0               0                0               0
1.9835                 0.8009849       -41.67179       0.02146981        86.43624                0               0                0               0
1.9901                 0.7940629       -42.17053       0.02205148        82.18915                0               0                0               0
1.9967                 0.7869141       -42.67296       0.02264151        77.91123                0               0                0               0
2.0033                 0.7795347       -43.17868       0.02323924         73.6033                0               0                0               0
2.0099                 0.7719215       -43.68723       0.02384397         69.2662                0               0                0               0
2.0165                 0.7640719       -44.19813       0.02445497        64.90081                0               0                0               0
2.0231                 0.7559834       -44.71087       0.02507149        60.50806                0               0                0               0
2.0297                 0.7476543       -45.22487       0.02569275        56.08889                0               0                0               0
2.0363                 0.7390832       -45.73954       0.02631796        51.64425                0               0                0               0
2.0429                 0.7302692       -46.25426        0.0269463        47.17511                0               0                0               0
2.0495                 0.7212119       -46.76831       0.02757693        42.68245                0               0                0               0
2.05611                0.7119116         -47.281         0.028209        38.16725                0               0                0               0
2.06271                0.7023687       -47.79153       0.02884165        33.63049                0               0                0               0
2.06931                0.6925844       -48.29908       0.02947401        29.07313                0               0                0               0
2.07591                0.6825604       -48.80278       0.03010518        24.49616                0               0                0               0
2.08251                 0.672299       -49.30169       0.03073428        19.90053                0               0                0               0
2.08911                0.6618027       -49.79481       0.03136043        15.28718                0               0                0               0
2.09571                0.6510748       -50.28106       0.03198271        10.65707                0               0                0               0
2.10231                 0.640119        -50.7593       0.03260023        6.011108                0               0                0               0
2.10891                0.6289395       -51.22829        0.0332121        1.350213                0               0                0               0
2.11551                0.6175412        -51.6867       0.03381743       -3.324723                0               0                0               0
2.12211                0.6059293        -52.1331       0.03441534       -8.012812                0               0                0               0
2.12871                0.5941098       -52.56593       0.03500495       -12.71319                0               0                0               0
2.13531                 0.582089       -52.98352       0.03558539         -17.425                0               0                0               0
2.14191                0.5698741       -53.38402       0.03615582       -22.14741                0               0                0               0
2.14851                0.5574728       -53.76543        0.0367154        -26.8796                0               0                0               0
2.15512                0.5448932       -54.12555        0.0372633       -31.62075                0               0                0               0
2.16172                0.5321447         -54.462       0.03779874       -36.37008                0               0                0               0
2.16832                0.5192369       -54.77212       0.03832092       -41.12681                0               0                0               0
2.17492                0.5061804         -55.053       0.03882911       -45.89016                0               0                0               0
2.18152                0.4929869       -55.30142       0.03932254       -50.65939                0               0                0               0
2.18812                0.4796689       -55.51382       0.03980054       -55.43376                0               0                0               0
2.19472                  0.46624       -55.68622       0.04026242       -60.21253                0               0                0               0
2.20132                 0.452715       -55.81425       0.04070752       -64.99499                0               0                0               0
2.20792                0.4391101       -55.89298       0.04113524       -69.78043                0               0                0               0
2.21452                0.4254429       -55.91695       0.04154499       -74.56816                0               0                0               0
2.22112                0.4117327       -55.88004       0.04193622       -79.35749                0               0                0               0
2.22772                0.3980007        -55.7754       0.04230843       -84.14774                0               0                0               0
2.23432                0.3842703       -55.59537       0.04266113       -88.93825                0               0                0               0
2.24092                0.3705672       -55.33138        0.0429939       -93.72834                0               0                0               0
2.24752                0.3569197        -54.9738       0.04330632       -98.51738                0               0                0               0
2.25413                0.3433595       -54.51188       0.04359806       -103.3047                0               0                0               0
2.26073                0.3299217       -53.93362       0.04386879       -108.0897                0               0                0               0
2.26733                0.3166454       -53.22568       0.04411824       -112.8717                0               0                0               0
2.27393                0.3035745       -52.37326        0.0443462       -117.6501                0               0                0               0
2.28053                 0.290758       -51.36015       0.04455245       -122.4243                0               0                0               0
2.28713                0.2782508       -50.16871       0.04473688       -127.1936                0               0                0               0
2.29373                0.2661146       -48.78012       0.04489938       -131.9575                0               0                0               0